TITLE = "  8.95000E+04 [y]"
VARIABLES="X [m]","Y [m]","Z [m]","Temperature [C]","Liquid Pressure [Pa]","Gas Pressure [Pa]","Liquid Saturation","Gas Saturation","Hydrate Saturation","Liquid Density [kg/m^3]","Gas Density [kg/m^3]","Permeability X [m^2]","Porosity","Material ID"
ZONE T="8.95000E+04", STRANDID=1, SOLUTIONTIME=8.95000E+04, I=1, J=1, K=1000, DATAPACKING=POINT
 5.000000E-01  5.000000E-01  5.000000E-01  4.169456E+01  1.681980E+07  1.682364E+07  9.930674E-01  6.932588E-03  0.000000E+00  1.024000E+03  1.588995E+02  3.379583E-17  2.890648E-01    1 
 5.000000E-01  5.000000E-01  1.500000E+00  4.165351E+01  1.680977E+07  1.681364E+07  9.929946E-01  7.005362E-03  0.000000E+00  1.024000E+03  1.588365E+02  3.380093E-17  2.892959E-01    1 
 5.000000E-01  5.000000E-01  2.500000E+00  4.161247E+01  1.679973E+07  1.680364E+07  9.929299E-01  7.070146E-03  0.000000E+00  1.024000E+03  1.587735E+02  3.380603E-17  2.895273E-01    1 
 5.000000E-01  5.000000E-01  3.500000E+00  4.157143E+01  1.678970E+07  1.679363E+07  9.928643E-01  7.135660E-03  0.000000E+00  1.024000E+03  1.587104E+02  3.381113E-17  2.897588E-01    1 
 5.000000E-01  5.000000E-01  4.500000E+00  4.153039E+01  1.677966E+07  1.678363E+07  9.927981E-01  7.201903E-03  0.000000E+00  1.024000E+03  1.586474E+02  3.381624E-17  2.899905E-01    1 
 5.000000E-01  5.000000E-01  5.500000E+00  4.148936E+01  1.676962E+07  1.677363E+07  9.927311E-01  7.268874E-03  0.000000E+00  1.024000E+03  1.585843E+02  3.382135E-17  2.902224E-01    1 
 5.000000E-01  5.000000E-01  6.500000E+00  4.144833E+01  1.675959E+07  1.676363E+07  9.926634E-01  7.336569E-03  0.000000E+00  1.024000E+03  1.585212E+02  3.382647E-17  2.904545E-01    1 
 5.000000E-01  5.000000E-01  7.500000E+00  4.140730E+01  1.674955E+07  1.675362E+07  9.925950E-01  7.404984E-03  0.000000E+00  1.024000E+03  1.584581E+02  3.383160E-17  2.906868E-01    1 
 5.000000E-01  5.000000E-01  8.500000E+00  4.136628E+01  1.673952E+07  1.674362E+07  9.925259E-01  7.474104E-03  0.000000E+00  1.024000E+03  1.583949E+02  3.383673E-17  2.909192E-01    1 
 5.000000E-01  5.000000E-01  9.500000E+00  4.132526E+01  1.672948E+07  1.673362E+07  9.924561E-01  7.543912E-03  0.000000E+00  1.024000E+03  1.583317E+02  3.384186E-17  2.911519E-01    1 
 5.000000E-01  5.000000E-01  1.050000E+01  4.128424E+01  1.671945E+07  1.672362E+07  9.923856E-01  7.614383E-03  0.000000E+00  1.024000E+03  1.582685E+02  3.384700E-17  2.913847E-01    1 
 5.000000E-01  5.000000E-01  1.150000E+01  4.124323E+01  1.670941E+07  1.671362E+07  9.923145E-01  7.685491E-03  0.000000E+00  1.024000E+03  1.582053E+02  3.385214E-17  2.916177E-01    1 
 5.000000E-01  5.000000E-01  1.250000E+01  4.120222E+01  1.669937E+07  1.670362E+07  9.922428E-01  7.757202E-03  0.000000E+00  1.024000E+03  1.581420E+02  3.385729E-17  2.918509E-01    1 
 5.000000E-01  5.000000E-01  1.350000E+01  4.116121E+01  1.668934E+07  1.669362E+07  9.921705E-01  7.829480E-03  0.000000E+00  1.024000E+03  1.580787E+02  3.386244E-17  2.920843E-01    1 
 5.000000E-01  5.000000E-01  1.450000E+01  4.112020E+01  1.667930E+07  1.668361E+07  9.920977E-01  7.902284E-03  0.000000E+00  1.024000E+03  1.580154E+02  3.386760E-17  2.923179E-01    1 
 5.000000E-01  5.000000E-01  1.550000E+01  4.107920E+01  1.666927E+07  1.667361E+07  9.920244E-01  7.975569E-03  0.000000E+00  1.024000E+03  1.579521E+02  3.387276E-17  2.925516E-01    1 
 5.000000E-01  5.000000E-01  1.650000E+01  4.103820E+01  1.665923E+07  1.666361E+07  9.919507E-01  8.049287E-03  0.000000E+00  1.024000E+03  1.578887E+02  3.387793E-17  2.927856E-01    1 
 5.000000E-01  5.000000E-01  1.750000E+01  4.099720E+01  1.664919E+07  1.665361E+07  9.918766E-01  8.123384E-03  0.000000E+00  1.024000E+03  1.578253E+02  3.388310E-17  2.930197E-01    1 
 5.000000E-01  5.000000E-01  1.850000E+01  4.095621E+01  1.663916E+07  1.664361E+07  9.918022E-01  8.197803E-03  0.000000E+00  1.024000E+03  1.577619E+02  3.388828E-17  2.932541E-01    1 
 5.000000E-01  5.000000E-01  1.950000E+01  4.091522E+01  1.662912E+07  1.663361E+07  9.917275E-01  8.272484E-03  0.000000E+00  1.024000E+03  1.576985E+02  3.389346E-17  2.934886E-01    1 
 5.000000E-01  5.000000E-01  2.050000E+01  4.087423E+01  1.661908E+07  1.662361E+07  9.916526E-01  8.347365E-03  0.000000E+00  1.024000E+03  1.576350E+02  3.389865E-17  2.937233E-01    1 
 5.000000E-01  5.000000E-01  2.150000E+01  4.083324E+01  1.660905E+07  1.661361E+07  9.915776E-01  8.422380E-03  0.000000E+00  1.024000E+03  1.575715E+02  3.390384E-17  2.939581E-01    1 
 5.000000E-01  5.000000E-01  2.250000E+01  4.079226E+01  1.659901E+07  1.660361E+07  9.915025E-01  8.497460E-03  0.000000E+00  1.024000E+03  1.575080E+02  3.390904E-17  2.941932E-01    1 
 5.000000E-01  5.000000E-01  2.350000E+01  4.075128E+01  1.658897E+07  1.659361E+07  9.914275E-01  8.572534E-03  0.000000E+00  1.024000E+03  1.574444E+02  3.391424E-17  2.944285E-01    1 
 5.000000E-01  5.000000E-01  2.450000E+01  4.071031E+01  1.657894E+07  1.658361E+07  9.913525E-01  8.647533E-03  0.000000E+00  1.024000E+03  1.573808E+02  3.391945E-17  2.946639E-01    1 
 5.000000E-01  5.000000E-01  2.550000E+01  4.066933E+01  1.656890E+07  1.657360E+07  9.912776E-01  8.722384E-03  0.000000E+00  1.024000E+03  1.573172E+02  3.392466E-17  2.948996E-01    1 
 5.000000E-01  5.000000E-01  2.650000E+01  4.062836E+01  1.655886E+07  1.656360E+07  9.912030E-01  8.797016E-03  0.000000E+00  1.024000E+03  1.572536E+02  3.392988E-17  2.951354E-01    1 
 5.000000E-01  5.000000E-01  2.750000E+01  4.058740E+01  1.654883E+07  1.655360E+07  9.911286E-01  8.871358E-03  0.000000E+00  1.024000E+03  1.571899E+02  3.393510E-17  2.953714E-01    1 
 5.000000E-01  5.000000E-01  2.850000E+01  4.054643E+01  1.653879E+07  1.654360E+07  9.910547E-01  8.945343E-03  0.000000E+00  1.024000E+03  1.571262E+02  3.394033E-17  2.956076E-01    1 
 5.000000E-01  5.000000E-01  2.950000E+01  4.050547E+01  1.652875E+07  1.653359E+07  9.909811E-01  9.018903E-03  0.000000E+00  1.024000E+03  1.570625E+02  3.394556E-17  2.958440E-01    1 
 5.000000E-01  5.000000E-01  3.050000E+01  4.046451E+01  1.651872E+07  1.652359E+07  9.909080E-01  9.091979E-03  0.000000E+00  1.024000E+03  1.569987E+02  3.395080E-17  2.960806E-01    1 
 5.000000E-01  5.000000E-01  3.150000E+01  4.042356E+01  1.650868E+07  1.651359E+07  9.908355E-01  9.164513E-03  0.000000E+00  1.024000E+03  1.569349E+02  3.395604E-17  2.963173E-01    1 
 5.000000E-01  5.000000E-01  3.250000E+01  4.038261E+01  1.649864E+07  1.650358E+07  9.907635E-01  9.236455E-03  0.000000E+00  1.024000E+03  1.568711E+02  3.396129E-17  2.965543E-01    1 
 5.000000E-01  5.000000E-01  3.350000E+01  4.034166E+01  1.648860E+07  1.649358E+07  9.906922E-01  9.307758E-03  0.000000E+00  1.024000E+03  1.568073E+02  3.396654E-17  2.967915E-01    1 
 5.000000E-01  5.000000E-01  3.450000E+01  4.030071E+01  1.647857E+07  1.648357E+07  9.906216E-01  9.378386E-03  0.000000E+00  1.024000E+03  1.567434E+02  3.397180E-17  2.970288E-01    1 
 5.000000E-01  5.000000E-01  3.550000E+01  4.025977E+01  1.646853E+07  1.647357E+07  9.905517E-01  9.448309E-03  0.000000E+00  1.024000E+03  1.566795E+02  3.397706E-17  2.972663E-01    1 
 5.000000E-01  5.000000E-01  3.650000E+01  4.021883E+01  1.645849E+07  1.646356E+07  9.904825E-01  9.517503E-03  0.000000E+00  1.024000E+03  1.566156E+02  3.398233E-17  2.975040E-01    1 
 5.000000E-01  5.000000E-01  3.750000E+01  4.017789E+01  1.644845E+07  1.645356E+07  9.904140E-01  9.585954E-03  0.000000E+00  1.024000E+03  1.565516E+02  3.398760E-17  2.977419E-01    1 
 5.000000E-01  5.000000E-01  3.850000E+01  4.013696E+01  1.643842E+07  1.644355E+07  9.903463E-01  9.653655E-03  0.000000E+00  1.024000E+03  1.564876E+02  3.399288E-17  2.979800E-01    1 
 5.000000E-01  5.000000E-01  3.950000E+01  4.009603E+01  1.642838E+07  1.643354E+07  9.902794E-01  9.720607E-03  0.000000E+00  1.024000E+03  1.564236E+02  3.399816E-17  2.982183E-01    1 
 5.000000E-01  5.000000E-01  4.050000E+01  4.005510E+01  1.641834E+07  1.642353E+07  9.902132E-01  9.786818E-03  0.000000E+00  1.024000E+03  1.563595E+02  3.400345E-17  2.984568E-01    1 
 5.000000E-01  5.000000E-01  4.150000E+01  4.001418E+01  1.640830E+07  1.641353E+07  9.901477E-01  9.852302E-03  0.000000E+00  1.024000E+03  1.562954E+02  3.400874E-17  2.986955E-01    1 
 5.000000E-01  5.000000E-01  4.250000E+01  3.997326E+01  1.639826E+07  1.640352E+07  9.900829E-01  9.917080E-03  0.000000E+00  1.024000E+03  1.562313E+02  3.401404E-17  2.989343E-01    1 
 5.000000E-01  5.000000E-01  4.350000E+01  3.993234E+01  1.638823E+07  1.639351E+07  9.900188E-01  9.981176E-03  0.000000E+00  1.024000E+03  1.561671E+02  3.401934E-17  2.991734E-01    1 
 5.000000E-01  5.000000E-01  4.450000E+01  3.989142E+01  1.637819E+07  1.638350E+07  9.899554E-01  1.004462E-02  0.000000E+00  1.024000E+03  1.561030E+02  3.402465E-17  2.994126E-01    1 
 5.000000E-01  5.000000E-01  4.550000E+01  3.985051E+01  1.636815E+07  1.637349E+07  9.898926E-01  1.010745E-02  0.000000E+00  1.024000E+03  1.560387E+02  3.402996E-17  2.996521E-01    1 
 5.000000E-01  5.000000E-01  4.650000E+01  3.980960E+01  1.635811E+07  1.636348E+07  9.898303E-01  1.016969E-02  0.000000E+00  1.024000E+03  1.559745E+02  3.403528E-17  2.998917E-01    1 
 5.000000E-01  5.000000E-01  4.750000E+01  3.976870E+01  1.634807E+07  1.635347E+07  9.897686E-01  1.023140E-02  0.000000E+00  1.024000E+03  1.559102E+02  3.404060E-17  3.001315E-01    1 
 5.000000E-01  5.000000E-01  4.850000E+01  3.972779E+01  1.633804E+07  1.634345E+07  9.897074E-01  1.029259E-02  0.000000E+00  1.024000E+03  1.558459E+02  3.404593E-17  3.003715E-01    1 
 5.000000E-01  5.000000E-01  4.950000E+01  3.968689E+01  1.632800E+07  1.633344E+07  9.896467E-01  1.035332E-02  0.000000E+00  1.024000E+03  1.557816E+02  3.405126E-17  3.006117E-01    1 
 5.000000E-01  5.000000E-01  5.050000E+01  3.964600E+01  1.631796E+07  1.632343E+07  9.895864E-01  1.041363E-02  0.000000E+00  1.024000E+03  1.557172E+02  3.405660E-17  3.008521E-01    1 
 5.000000E-01  5.000000E-01  5.150000E+01  3.960510E+01  1.630792E+07  1.631342E+07  9.895264E-01  1.047355E-02  0.000000E+00  1.024000E+03  1.556528E+02  3.406195E-17  3.010927E-01    1 
 5.000000E-01  5.000000E-01  5.250000E+01  3.956421E+01  1.629788E+07  1.630341E+07  9.894669E-01  1.053313E-02  0.000000E+00  1.024000E+03  1.555884E+02  3.406729E-17  3.013335E-01    1 
 5.000000E-01  5.000000E-01  5.350000E+01  3.952333E+01  1.628784E+07  1.629339E+07  9.894076E-01  1.059239E-02  0.000000E+00  1.024000E+03  1.555240E+02  3.407265E-17  3.015744E-01    1 
 5.000000E-01  5.000000E-01  5.450000E+01  3.948244E+01  1.627780E+07  1.628338E+07  9.893486E-01  1.065139E-02  0.000000E+00  1.024000E+03  1.554595E+02  3.407801E-17  3.018156E-01    1 
 5.000000E-01  5.000000E-01  5.550000E+01  3.944156E+01  1.626777E+07  1.627337E+07  9.892898E-01  1.071015E-02  0.000000E+00  1.024000E+03  1.553950E+02  3.408337E-17  3.020570E-01    1 
 5.000000E-01  5.000000E-01  5.650000E+01  3.940069E+01  1.625773E+07  1.626336E+07  9.892313E-01  1.076871E-02  0.000000E+00  1.024000E+03  1.553304E+02  3.408874E-17  3.022985E-01    1 
 5.000000E-01  5.000000E-01  5.750000E+01  3.935981E+01  1.624769E+07  1.625334E+07  9.891729E-01  1.082711E-02  0.000000E+00  1.024000E+03  1.552659E+02  3.409411E-17  3.025403E-01    1 
 5.000000E-01  5.000000E-01  5.850000E+01  3.931894E+01  1.623765E+07  1.624333E+07  9.891146E-01  1.088538E-02  0.000000E+00  1.024000E+03  1.552013E+02  3.409949E-17  3.027822E-01    1 
 5.000000E-01  5.000000E-01  5.950000E+01  3.927807E+01  1.622761E+07  1.623331E+07  9.890565E-01  1.094355E-02  0.000000E+00  1.024000E+03  1.551366E+02  3.410488E-17  3.030243E-01    1 
 5.000000E-01  5.000000E-01  6.050000E+01  3.923721E+01  1.621757E+07  1.622330E+07  9.889983E-01  1.100165E-02  0.000000E+00  1.024000E+03  1.550720E+02  3.411027E-17  3.032666E-01    1 
 5.000000E-01  5.000000E-01  6.150000E+01  3.919635E+01  1.620753E+07  1.621329E+07  9.889403E-01  1.105972E-02  0.000000E+00  1.024000E+03  1.550073E+02  3.411566E-17  3.035092E-01    1 
 5.000000E-01  5.000000E-01  6.250000E+01  3.915549E+01  1.619749E+07  1.620327E+07  9.888822E-01  1.111779E-02  0.000000E+00  1.024000E+03  1.549426E+02  3.412106E-17  3.037519E-01    1 
 5.000000E-01  5.000000E-01  6.350000E+01  3.911463E+01  1.618745E+07  1.619326E+07  9.888241E-01  1.117588E-02  0.000000E+00  1.024000E+03  1.548779E+02  3.412647E-17  3.039948E-01    1 
 5.000000E-01  5.000000E-01  6.450000E+01  3.907378E+01  1.617741E+07  1.618324E+07  9.887660E-01  1.123403E-02  0.000000E+00  1.024000E+03  1.548131E+02  3.413188E-17  3.042379E-01    1 
 5.000000E-01  5.000000E-01  6.550000E+01  3.903293E+01  1.616737E+07  1.617323E+07  9.887077E-01  1.129226E-02  0.000000E+00  1.024000E+03  1.547483E+02  3.413729E-17  3.044812E-01    1 
 5.000000E-01  5.000000E-01  6.650000E+01  3.899209E+01  1.615733E+07  1.616321E+07  9.886494E-01  1.135062E-02  0.000000E+00  1.024000E+03  1.546835E+02  3.414271E-17  3.047247E-01    1 
 5.000000E-01  5.000000E-01  6.750000E+01  3.895124E+01  1.614729E+07  1.615320E+07  9.885909E-01  1.140912E-02  0.000000E+00  1.024000E+03  1.546186E+02  3.414814E-17  3.049683E-01    1 
 5.000000E-01  5.000000E-01  6.850000E+01  3.891040E+01  1.613725E+07  1.614318E+07  9.885322E-01  1.146779E-02  0.000000E+00  1.024000E+03  1.545537E+02  3.415357E-17  3.052122E-01    1 
 5.000000E-01  5.000000E-01  6.950000E+01  3.886957E+01  1.612721E+07  1.613317E+07  9.884733E-01  1.152667E-02  0.000000E+00  1.024000E+03  1.544888E+02  3.415901E-17  3.054563E-01    1 
 5.000000E-01  5.000000E-01  7.050000E+01  3.882874E+01  1.611717E+07  1.612315E+07  9.884142E-01  1.158579E-02  0.000000E+00  1.024000E+03  1.544239E+02  3.416445E-17  3.057006E-01    1 
 5.000000E-01  5.000000E-01  7.150000E+01  3.878791E+01  1.610713E+07  1.611314E+07  9.883548E-01  1.164516E-02  0.000000E+00  1.024000E+03  1.543589E+02  3.416989E-17  3.059450E-01    1 
 5.000000E-01  5.000000E-01  7.250000E+01  3.874708E+01  1.609709E+07  1.610312E+07  9.882952E-01  1.170482E-02  0.000000E+00  1.024000E+03  1.542940E+02  3.417535E-17  3.061897E-01    1 
 5.000000E-01  5.000000E-01  7.350000E+01  3.870626E+01  1.608705E+07  1.609311E+07  9.882352E-01  1.176480E-02  0.000000E+00  1.024000E+03  1.542289E+02  3.418080E-17  3.064345E-01    1 
 5.000000E-01  5.000000E-01  7.450000E+01  3.866544E+01  1.607701E+07  1.608309E+07  9.881749E-01  1.182512E-02  0.000000E+00  1.024000E+03  1.541639E+02  3.418627E-17  3.066796E-01    1 
 5.000000E-01  5.000000E-01  7.550000E+01  3.862462E+01  1.606697E+07  1.607308E+07  9.881142E-01  1.188581E-02  0.000000E+00  1.024000E+03  1.540988E+02  3.419173E-17  3.069248E-01    1 
 5.000000E-01  5.000000E-01  7.650000E+01  3.858380E+01  1.605693E+07  1.606306E+07  9.880531E-01  1.194688E-02  0.000000E+00  1.024000E+03  1.540337E+02  3.419721E-17  3.071703E-01    1 
 5.000000E-01  5.000000E-01  7.750000E+01  3.854299E+01  1.604689E+07  1.605305E+07  9.879916E-01  1.200837E-02  0.000000E+00  1.024000E+03  1.539686E+02  3.420268E-17  3.074159E-01    1 
 5.000000E-01  5.000000E-01  7.850000E+01  3.850219E+01  1.603685E+07  1.604304E+07  9.879297E-01  1.207030E-02  0.000000E+00  1.024000E+03  1.539035E+02  3.420817E-17  3.076617E-01    1 
 5.000000E-01  5.000000E-01  7.950000E+01  3.846138E+01  1.602681E+07  1.603302E+07  9.878673E-01  1.213268E-02  0.000000E+00  1.024000E+03  1.538383E+02  3.421366E-17  3.079078E-01    1 
 5.000000E-01  5.000000E-01  8.050000E+01  3.842058E+01  1.601677E+07  1.602301E+07  9.878045E-01  1.219553E-02  0.000000E+00  1.024000E+03  1.537731E+02  3.421915E-17  3.081540E-01    1 
 5.000000E-01  5.000000E-01  8.150000E+01  3.837978E+01  1.600673E+07  1.601299E+07  9.877411E-01  1.225888E-02  0.000000E+00  1.024000E+03  1.537078E+02  3.422465E-17  3.084004E-01    1 
 5.000000E-01  5.000000E-01  8.250000E+01  3.833899E+01  1.599669E+07  1.600298E+07  9.876773E-01  1.232272E-02  0.000000E+00  1.024000E+03  1.536426E+02  3.423015E-17  3.086470E-01    1 
 5.000000E-01  5.000000E-01  8.350000E+01  3.829820E+01  1.598665E+07  1.599296E+07  9.876129E-01  1.238708E-02  0.000000E+00  1.024000E+03  1.535773E+02  3.423566E-17  3.088939E-01    1 
 5.000000E-01  5.000000E-01  8.450000E+01  3.825741E+01  1.597661E+07  1.598295E+07  9.875480E-01  1.245196E-02  0.000000E+00  1.024000E+03  1.535120E+02  3.424118E-17  3.091409E-01    1 
 5.000000E-01  5.000000E-01  8.550000E+01  3.821663E+01  1.596657E+07  1.597293E+07  9.874826E-01  1.251736E-02  0.000000E+00  1.024000E+03  1.534466E+02  3.424670E-17  3.093881E-01    1 
 5.000000E-01  5.000000E-01  8.650000E+01  3.817584E+01  1.595653E+07  1.596292E+07  9.874167E-01  1.258329E-02  0.000000E+00  1.024000E+03  1.533813E+02  3.425222E-17  3.096355E-01    1 
 5.000000E-01  5.000000E-01  8.750000E+01  3.813507E+01  1.594648E+07  1.595291E+07  9.873503E-01  1.264974E-02  0.000000E+00  1.024000E+03  1.533159E+02  3.425775E-17  3.098831E-01    1 
 5.000000E-01  5.000000E-01  8.850000E+01  3.809429E+01  1.593644E+07  1.594289E+07  9.872833E-01  1.271671E-02  0.000000E+00  1.024000E+03  1.532504E+02  3.426329E-17  3.101309E-01    1 
 5.000000E-01  5.000000E-01  8.950000E+01  3.805352E+01  1.592640E+07  1.593288E+07  9.872158E-01  1.278418E-02  0.000000E+00  1.024000E+03  1.531850E+02  3.426883E-17  3.103789E-01    1 
 5.000000E-01  5.000000E-01  9.050000E+01  3.801275E+01  1.591636E+07  1.592286E+07  9.871479E-01  1.285214E-02  0.000000E+00  1.024000E+03  1.531195E+02  3.427438E-17  3.106271E-01    1 
 5.000000E-01  5.000000E-01  9.150000E+01  3.797198E+01  1.590632E+07  1.591285E+07  9.870794E-01  1.292057E-02  0.000000E+00  1.024000E+03  1.530540E+02  3.427993E-17  3.108755E-01    1 
 5.000000E-01  5.000000E-01  9.250000E+01  3.793122E+01  1.589628E+07  1.590284E+07  9.870105E-01  1.298945E-02  0.000000E+00  1.024000E+03  1.529885E+02  3.428549E-17  3.111241E-01    1 
 5.000000E-01  5.000000E-01  9.350000E+01  3.789046E+01  1.588624E+07  1.589282E+07  9.869413E-01  1.305875E-02  0.000000E+00  1.024000E+03  1.529229E+02  3.429105E-17  3.113729E-01    1 
 5.000000E-01  5.000000E-01  9.450000E+01  3.784971E+01  1.587619E+07  1.588281E+07  9.868716E-01  1.312843E-02  0.000000E+00  1.024000E+03  1.528573E+02  3.429662E-17  3.116219E-01    1 
 5.000000E-01  5.000000E-01  9.550000E+01  3.780895E+01  1.586615E+07  1.587279E+07  9.868015E-01  1.319846E-02  0.000000E+00  1.024000E+03  1.527917E+02  3.430219E-17  3.118711E-01    1 
 5.000000E-01  5.000000E-01  9.650000E+01  3.776820E+01  1.585611E+07  1.586278E+07  9.867312E-01  1.326881E-02  0.000000E+00  1.024000E+03  1.527261E+02  3.430777E-17  3.121205E-01    1 
 5.000000E-01  5.000000E-01  9.750000E+01  3.772746E+01  1.584607E+07  1.585277E+07  9.866606E-01  1.333942E-02  0.000000E+00  1.024000E+03  1.526604E+02  3.431336E-17  3.123701E-01    1 
 5.000000E-01  5.000000E-01  9.850000E+01  3.768671E+01  1.583603E+07  1.584275E+07  9.865897E-01  1.341027E-02  0.000000E+00  1.024000E+03  1.525947E+02  3.431895E-17  3.126199E-01    1 
 5.000000E-01  5.000000E-01  9.950000E+01  3.764597E+01  1.582598E+07  1.583274E+07  9.865187E-01  1.348129E-02  0.000000E+00  1.024000E+03  1.525290E+02  3.432454E-17  3.128699E-01    1 
 5.000000E-01  5.000000E-01  1.005000E+02  3.760524E+01  1.581594E+07  1.582272E+07  9.864476E-01  1.355245E-02  0.000000E+00  1.024000E+03  1.524632E+02  3.433014E-17  3.131201E-01    1 
 5.000000E-01  5.000000E-01  1.015000E+02  3.756450E+01  1.580590E+07  1.581271E+07  9.863763E-01  1.362369E-02  0.000000E+00  1.024000E+03  1.523974E+02  3.433575E-17  3.133705E-01    1 
 5.000000E-01  5.000000E-01  1.025000E+02  3.752377E+01  1.579586E+07  1.580269E+07  9.863050E-01  1.369497E-02  0.000000E+00  1.024000E+03  1.523316E+02  3.434136E-17  3.136211E-01    1 
 5.000000E-01  5.000000E-01  1.035000E+02  3.748304E+01  1.578581E+07  1.579268E+07  9.862338E-01  1.376624E-02  0.000000E+00  1.024000E+03  1.522658E+02  3.434698E-17  3.138719E-01    1 
 5.000000E-01  5.000000E-01  1.045000E+02  3.744232E+01  1.577577E+07  1.578266E+07  9.861625E-01  1.383746E-02  0.000000E+00  1.024000E+03  1.521999E+02  3.435260E-17  3.141229E-01    1 
 5.000000E-01  5.000000E-01  1.055000E+02  3.740160E+01  1.576573E+07  1.577265E+07  9.860914E-01  1.390857E-02  0.000000E+00  1.024000E+03  1.521340E+02  3.435823E-17  3.143741E-01    1 
 5.000000E-01  5.000000E-01  1.065000E+02  3.736088E+01  1.575569E+07  1.576263E+07  9.860205E-01  1.397954E-02  0.000000E+00  1.024000E+03  1.520681E+02  3.436386E-17  3.146255E-01    1 
 5.000000E-01  5.000000E-01  1.075000E+02  3.732017E+01  1.574564E+07  1.575262E+07  9.859497E-01  1.405032E-02  0.000000E+00  1.024000E+03  1.520021E+02  3.436950E-17  3.148771E-01    1 
 5.000000E-01  5.000000E-01  1.085000E+02  3.727946E+01  1.573560E+07  1.574260E+07  9.858791E-01  1.412088E-02  0.000000E+00  1.024000E+03  1.519361E+02  3.437514E-17  3.151289E-01    1 
 5.000000E-01  5.000000E-01  1.095000E+02  3.723875E+01  1.572556E+07  1.573259E+07  9.858088E-01  1.419119E-02  0.000000E+00  1.024000E+03  1.518701E+02  3.438079E-17  3.153809E-01    1 
 5.000000E-01  5.000000E-01  1.105000E+02  3.719804E+01  1.571551E+07  1.572257E+07  9.857388E-01  1.426122E-02  0.000000E+00  1.024000E+03  1.518040E+02  3.438645E-17  3.156331E-01    1 
 5.000000E-01  5.000000E-01  1.115000E+02  3.715734E+01  1.570547E+07  1.571255E+07  9.856691E-01  1.433093E-02  0.000000E+00  1.024000E+03  1.517379E+02  3.439211E-17  3.158855E-01    1 
 5.000000E-01  5.000000E-01  1.125000E+02  3.711665E+01  1.569543E+07  1.570253E+07  9.855997E-01  1.440032E-02  0.000000E+00  1.024000E+03  1.516718E+02  3.439777E-17  3.161381E-01    1 
 5.000000E-01  5.000000E-01  1.135000E+02  3.707595E+01  1.568538E+07  1.569252E+07  9.855306E-01  1.446937E-02  0.000000E+00  1.024000E+03  1.516057E+02  3.440344E-17  3.163909E-01    1 
 5.000000E-01  5.000000E-01  1.145000E+02  3.703526E+01  1.567534E+07  1.568250E+07  9.854620E-01  1.453805E-02  0.000000E+00  1.024000E+03  1.515395E+02  3.440912E-17  3.166439E-01    1 
 5.000000E-01  5.000000E-01  1.155000E+02  3.699457E+01  1.566530E+07  1.567248E+07  9.853936E-01  1.460637E-02  0.000000E+00  1.024000E+03  1.514733E+02  3.441480E-17  3.168971E-01    1 
 5.000000E-01  5.000000E-01  1.165000E+02  3.695389E+01  1.565525E+07  1.566246E+07  9.853257E-01  1.467431E-02  0.000000E+00  1.024000E+03  1.514071E+02  3.442049E-17  3.171506E-01    1 
 5.000000E-01  5.000000E-01  1.175000E+02  3.691320E+01  1.564521E+07  1.565245E+07  9.852581E-01  1.474188E-02  0.000000E+00  1.024000E+03  1.513408E+02  3.442618E-17  3.174042E-01    1 
 5.000000E-01  5.000000E-01  1.185000E+02  3.687253E+01  1.563517E+07  1.564243E+07  9.851909E-01  1.480907E-02  0.000000E+00  1.024000E+03  1.512745E+02  3.443188E-17  3.176580E-01    1 
 5.000000E-01  5.000000E-01  1.195000E+02  3.683185E+01  1.562512E+07  1.563241E+07  9.851241E-01  1.487590E-02  0.000000E+00  1.024000E+03  1.512082E+02  3.443758E-17  3.179120E-01    1 
 5.000000E-01  5.000000E-01  1.205000E+02  3.679118E+01  1.561508E+07  1.562239E+07  9.850576E-01  1.494236E-02  0.000000E+00  1.024000E+03  1.511418E+02  3.444329E-17  3.181663E-01    1 
 5.000000E-01  5.000000E-01  1.215000E+02  3.675051E+01  1.560503E+07  1.561237E+07  9.849915E-01  1.500848E-02  0.000000E+00  1.024000E+03  1.510754E+02  3.444901E-17  3.184207E-01    1 
 5.000000E-01  5.000000E-01  1.225000E+02  3.670984E+01  1.559499E+07  1.560235E+07  9.849258E-01  1.507425E-02  0.000000E+00  1.024000E+03  1.510090E+02  3.445473E-17  3.186753E-01    1 
 5.000000E-01  5.000000E-01  1.235000E+02  3.666918E+01  1.558495E+07  1.559233E+07  9.848603E-01  1.513969E-02  0.000000E+00  1.024000E+03  1.509425E+02  3.446046E-17  3.189302E-01    1 
 5.000000E-01  5.000000E-01  1.245000E+02  3.662852E+01  1.557490E+07  1.558231E+07  9.847952E-01  1.520482E-02  0.000000E+00  1.024000E+03  1.508760E+02  3.446619E-17  3.191852E-01    1 
 5.000000E-01  5.000000E-01  1.255000E+02  3.658787E+01  1.556486E+07  1.557229E+07  9.847303E-01  1.526965E-02  0.000000E+00  1.024000E+03  1.508095E+02  3.447192E-17  3.194405E-01    1 
 5.000000E-01  5.000000E-01  1.265000E+02  3.654722E+01  1.555481E+07  1.556227E+07  9.846658E-01  1.533420E-02  0.000000E+00  1.024000E+03  1.507430E+02  3.447767E-17  3.196959E-01    1 
 5.000000E-01  5.000000E-01  1.275000E+02  3.650657E+01  1.554477E+07  1.555224E+07  9.846015E-01  1.539848E-02  0.000000E+00  1.024000E+03  1.506764E+02  3.448342E-17  3.199516E-01    1 
 5.000000E-01  5.000000E-01  1.285000E+02  3.646592E+01  1.553472E+07  1.554222E+07  9.845375E-01  1.546250E-02  0.000000E+00  1.024000E+03  1.506098E+02  3.448917E-17  3.202074E-01    1 
 5.000000E-01  5.000000E-01  1.295000E+02  3.642528E+01  1.552468E+07  1.553220E+07  9.844737E-01  1.552629E-02  0.000000E+00  1.024000E+03  1.505432E+02  3.449493E-17  3.204635E-01    1 
 5.000000E-01  5.000000E-01  1.305000E+02  3.638464E+01  1.551463E+07  1.552218E+07  9.844101E-01  1.558986E-02  0.000000E+00  1.024000E+03  1.504765E+02  3.450069E-17  3.207197E-01    1 
 5.000000E-01  5.000000E-01  1.315000E+02  3.634401E+01  1.550459E+07  1.551216E+07  9.843468E-01  1.565323E-02  0.000000E+00  1.024000E+03  1.504098E+02  3.450646E-17  3.209762E-01    1 
 5.000000E-01  5.000000E-01  1.325000E+02  3.630338E+01  1.549454E+07  1.550213E+07  9.842836E-01  1.571641E-02  0.000000E+00  1.024000E+03  1.503431E+02  3.451224E-17  3.212329E-01    1 
 5.000000E-01  5.000000E-01  1.335000E+02  3.626275E+01  1.548450E+07  1.549211E+07  9.842206E-01  1.577942E-02  0.000000E+00  1.024000E+03  1.502763E+02  3.451802E-17  3.214898E-01    1 
 5.000000E-01  5.000000E-01  1.345000E+02  3.622212E+01  1.547445E+07  1.548209E+07  9.841577E-01  1.584227E-02  0.000000E+00  1.024000E+03  1.502095E+02  3.452381E-17  3.217469E-01    1 
 5.000000E-01  5.000000E-01  1.355000E+02  3.618150E+01  1.546441E+07  1.547206E+07  9.840950E-01  1.590498E-02  0.000000E+00  1.024000E+03  1.501427E+02  3.452960E-17  3.220042E-01    1 
 5.000000E-01  5.000000E-01  1.365000E+02  3.614088E+01  1.545436E+07  1.546204E+07  9.840324E-01  1.596756E-02  0.000000E+00  1.024000E+03  1.500759E+02  3.453540E-17  3.222617E-01    1 
 5.000000E-01  5.000000E-01  1.375000E+02  3.610027E+01  1.544432E+07  1.545202E+07  9.839700E-01  1.603002E-02  0.000000E+00  1.024000E+03  1.500090E+02  3.454121E-17  3.225194E-01    1 
 5.000000E-01  5.000000E-01  1.385000E+02  3.605965E+01  1.543427E+07  1.544199E+07  9.839076E-01  1.609239E-02  0.000000E+00  1.024000E+03  1.499421E+02  3.454701E-17  3.227773E-01    1 
 5.000000E-01  5.000000E-01  1.395000E+02  3.601905E+01  1.542423E+07  1.543197E+07  9.838453E-01  1.615466E-02  0.000000E+00  1.024000E+03  1.498752E+02  3.455283E-17  3.230354E-01    1 
 5.000000E-01  5.000000E-01  1.405000E+02  3.597844E+01  1.541418E+07  1.542195E+07  9.837831E-01  1.621686E-02  0.000000E+00  1.024000E+03  1.498082E+02  3.455865E-17  3.232937E-01    1 
 5.000000E-01  5.000000E-01  1.415000E+02  3.593784E+01  1.540413E+07  1.541192E+07  9.837210E-01  1.627899E-02  0.000000E+00  1.024000E+03  1.497412E+02  3.456448E-17  3.235523E-01    1 
 5.000000E-01  5.000000E-01  1.425000E+02  3.589724E+01  1.539409E+07  1.540190E+07  9.836589E-01  1.634107E-02  0.000000E+00  1.024000E+03  1.496742E+02  3.457031E-17  3.238110E-01    1 
 5.000000E-01  5.000000E-01  1.435000E+02  3.585665E+01  1.538404E+07  1.539187E+07  9.835969E-01  1.640310E-02  0.000000E+00  1.024000E+03  1.496071E+02  3.457615E-17  3.240699E-01    1 
 5.000000E-01  5.000000E-01  1.445000E+02  3.581606E+01  1.537400E+07  1.538185E+07  9.835349E-01  1.646510E-02  0.000000E+00  1.024000E+03  1.495400E+02  3.458199E-17  3.243291E-01    1 
 5.000000E-01  5.000000E-01  1.455000E+02  3.577547E+01  1.536395E+07  1.537182E+07  9.834729E-01  1.652708E-02  0.000000E+00  1.024000E+03  1.494729E+02  3.458784E-17  3.245885E-01    1 
 5.000000E-01  5.000000E-01  1.465000E+02  3.573488E+01  1.535390E+07  1.536180E+07  9.834110E-01  1.658904E-02  0.000000E+00  1.024000E+03  1.494057E+02  3.459370E-17  3.248480E-01    1 
 5.000000E-01  5.000000E-01  1.475000E+02  3.569430E+01  1.534386E+07  1.535177E+07  9.833490E-01  1.665100E-02  0.000000E+00  1.024000E+03  1.493386E+02  3.459956E-17  3.251078E-01    1 
 5.000000E-01  5.000000E-01  1.485000E+02  3.565372E+01  1.533381E+07  1.534175E+07  9.832870E-01  1.671295E-02  0.000000E+00  1.024000E+03  1.492714E+02  3.460542E-17  3.253678E-01    1 
 5.000000E-01  5.000000E-01  1.495000E+02  3.561315E+01  1.532376E+07  1.533172E+07  9.832251E-01  1.677492E-02  0.000000E+00  1.024000E+03  1.492041E+02  3.461129E-17  3.256280E-01    1 
 5.000000E-01  5.000000E-01  1.505000E+02  3.557258E+01  1.531372E+07  1.532170E+07  9.831631E-01  1.683690E-02  0.000000E+00  1.024000E+03  1.491369E+02  3.461717E-17  3.258884E-01    1 
 5.000000E-01  5.000000E-01  1.515000E+02  3.553201E+01  1.530367E+07  1.531167E+07  9.831011E-01  1.689890E-02  0.000000E+00  1.024000E+03  1.490696E+02  3.462306E-17  3.261490E-01    1 
 5.000000E-01  5.000000E-01  1.525000E+02  3.549145E+01  1.529362E+07  1.530164E+07  9.830391E-01  1.696093E-02  0.000000E+00  1.024000E+03  1.490022E+02  3.462894E-17  3.264098E-01    1 
 5.000000E-01  5.000000E-01  1.535000E+02  3.545089E+01  1.528358E+07  1.529162E+07  9.829770E-01  1.702299E-02  0.000000E+00  1.024000E+03  1.489349E+02  3.463484E-17  3.266708E-01    1 
 5.000000E-01  5.000000E-01  1.545000E+02  3.541033E+01  1.527353E+07  1.528159E+07  9.829149E-01  1.708509E-02  0.000000E+00  1.024000E+03  1.488675E+02  3.464074E-17  3.269320E-01    1 
 5.000000E-01  5.000000E-01  1.555000E+02  3.536978E+01  1.526348E+07  1.527156E+07  9.828528E-01  1.714723E-02  0.000000E+00  1.024000E+03  1.488001E+02  3.464665E-17  3.271935E-01    1 
 5.000000E-01  5.000000E-01  1.565000E+02  3.532923E+01  1.525343E+07  1.526154E+07  9.827906E-01  1.720942E-02  0.000000E+00  1.024000E+03  1.487326E+02  3.465256E-17  3.274551E-01    1 