TITLE = "  5.05000E+04 [y]"
VARIABLES="X [m]","Y [m]","Z [m]","Temperature [C]","Liquid Pressure [Pa]","Gas Pressure [Pa]","Liquid Saturation","Gas Saturation","Hydrate Saturation","Liquid Density [kg/m^3]","Gas Density [kg/m^3]","Permeability X [m^2]","Porosity","Material ID"
ZONE T="5.05000E+04", STRANDID=1, SOLUTIONTIME=5.05000E+04, I=1, J=1, K=1000, DATAPACKING=POINT
 5.000000E-01  5.000000E-01  5.000000E-01  4.266263E+01  1.722397E+07  0.000000E+00  1.000000E+00  0.000000E+00  0.000000E+00  1.024000E+03  0.000000E+00  3.379583E-17  2.890648E-01    1 
 5.000000E-01  5.000000E-01  1.500000E+00  4.262163E+01  1.721394E+07  0.000000E+00  1.000000E+00  0.000000E+00  0.000000E+00  1.024000E+03  0.000000E+00  3.380093E-17  2.892959E-01    1 
 5.000000E-01  5.000000E-01  2.500000E+00  4.258063E+01  1.720390E+07  0.000000E+00  1.000000E+00  0.000000E+00  0.000000E+00  1.024000E+03  0.000000E+00  3.380603E-17  2.895273E-01    1 
 5.000000E-01  5.000000E-01  3.500000E+00  4.253963E+01  1.719387E+07  0.000000E+00  1.000000E+00  0.000000E+00  0.000000E+00  1.024000E+03  0.000000E+00  3.381113E-17  2.897588E-01    1 
 5.000000E-01  5.000000E-01  4.500000E+00  4.249863E+01  1.718383E+07  0.000000E+00  1.000000E+00  0.000000E+00  0.000000E+00  1.024000E+03  0.000000E+00  3.381624E-17  2.899905E-01    1 
 5.000000E-01  5.000000E-01  5.500000E+00  4.245764E+01  1.717380E+07  0.000000E+00  1.000000E+00  0.000000E+00  0.000000E+00  1.024000E+03  0.000000E+00  3.382135E-17  2.902224E-01    1 
 5.000000E-01  5.000000E-01  6.500000E+00  4.241666E+01  1.716376E+07  0.000000E+00  1.000000E+00  0.000000E+00  0.000000E+00  1.024000E+03  0.000000E+00  3.382647E-17  2.904545E-01    1 
 5.000000E-01  5.000000E-01  7.500000E+00  4.237568E+01  1.715373E+07  0.000000E+00  1.000000E+00  0.000000E+00  0.000000E+00  1.024000E+03  0.000000E+00  3.383160E-17  2.906868E-01    1 
 5.000000E-01  5.000000E-01  8.500000E+00  4.233470E+01  1.714369E+07  0.000000E+00  1.000000E+00  0.000000E+00  0.000000E+00  1.024000E+03  0.000000E+00  3.383673E-17  2.909192E-01    1 
 5.000000E-01  5.000000E-01  9.500000E+00  4.229372E+01  1.713366E+07  0.000000E+00  1.000000E+00  0.000000E+00  0.000000E+00  1.024000E+03  0.000000E+00  3.384186E-17  2.911519E-01    1 
 5.000000E-01  5.000000E-01  1.050000E+01  4.225275E+01  1.712362E+07  0.000000E+00  1.000000E+00  0.000000E+00  0.000000E+00  1.024000E+03  0.000000E+00  3.384700E-17  2.913847E-01    1 
 5.000000E-01  5.000000E-01  1.150000E+01  4.221178E+01  1.711359E+07  0.000000E+00  1.000000E+00  0.000000E+00  0.000000E+00  1.024000E+03  0.000000E+00  3.385214E-17  2.916177E-01    1 
 5.000000E-01  5.000000E-01  1.250000E+01  4.217082E+01  1.710355E+07  0.000000E+00  1.000000E+00  0.000000E+00  0.000000E+00  1.024000E+03  0.000000E+00  3.385729E-17  2.918509E-01    1 
 5.000000E-01  5.000000E-01  1.350000E+01  4.212986E+01  1.709352E+07  0.000000E+00  1.000000E+00  0.000000E+00  0.000000E+00  1.024000E+03  0.000000E+00  3.386244E-17  2.920843E-01    1 
 5.000000E-01  5.000000E-01  1.450000E+01  4.208890E+01  1.708348E+07  0.000000E+00  1.000000E+00  0.000000E+00  0.000000E+00  1.024000E+03  0.000000E+00  3.386760E-17  2.923179E-01    1 
 5.000000E-01  5.000000E-01  1.550000E+01  4.204795E+01  1.707345E+07  0.000000E+00  1.000000E+00  0.000000E+00  0.000000E+00  1.024000E+03  0.000000E+00  3.387276E-17  2.925516E-01    1 
 5.000000E-01  5.000000E-01  1.650000E+01  4.200700E+01  1.706341E+07  0.000000E+00  1.000000E+00  0.000000E+00  0.000000E+00  1.024000E+03  0.000000E+00  3.387793E-17  2.927856E-01    1 
 5.000000E-01  5.000000E-01  1.750000E+01  4.196605E+01  1.705338E+07  0.000000E+00  1.000000E+00  0.000000E+00  0.000000E+00  1.024000E+03  0.000000E+00  3.388310E-17  2.930197E-01    1 
 5.000000E-01  5.000000E-01  1.850000E+01  4.192511E+01  1.704334E+07  0.000000E+00  1.000000E+00  0.000000E+00  0.000000E+00  1.024000E+03  0.000000E+00  3.388828E-17  2.932541E-01    1 
 5.000000E-01  5.000000E-01  1.950000E+01  4.188417E+01  1.703331E+07  0.000000E+00  1.000000E+00  0.000000E+00  0.000000E+00  1.024000E+03  0.000000E+00  3.389346E-17  2.934886E-01    1 
 5.000000E-01  5.000000E-01  2.050000E+01  4.184324E+01  1.702327E+07  0.000000E+00  1.000000E+00  0.000000E+00  0.000000E+00  1.024000E+03  0.000000E+00  3.389865E-17  2.937233E-01    1 
 5.000000E-01  5.000000E-01  2.150000E+01  4.180231E+01  1.701323E+07  0.000000E+00  1.000000E+00  0.000000E+00  0.000000E+00  1.024000E+03  0.000000E+00  3.390384E-17  2.939581E-01    1 
 5.000000E-01  5.000000E-01  2.250000E+01  4.176138E+01  1.700320E+07  0.000000E+00  1.000000E+00  0.000000E+00  0.000000E+00  1.024000E+03  0.000000E+00  3.390904E-17  2.941932E-01    1 
 5.000000E-01  5.000000E-01  2.350000E+01  4.172046E+01  1.699316E+07  0.000000E+00  1.000000E+00  0.000000E+00  0.000000E+00  1.024000E+03  0.000000E+00  3.391424E-17  2.944285E-01    1 
 5.000000E-01  5.000000E-01  2.450000E+01  4.167954E+01  1.698313E+07  0.000000E+00  1.000000E+00  0.000000E+00  0.000000E+00  1.024000E+03  0.000000E+00  3.391945E-17  2.946639E-01    1 
 5.000000E-01  5.000000E-01  2.550000E+01  4.163863E+01  1.697309E+07  0.000000E+00  1.000000E+00  0.000000E+00  0.000000E+00  1.024000E+03  0.000000E+00  3.392466E-17  2.948996E-01    1 
 5.000000E-01  5.000000E-01  2.650000E+01  4.159772E+01  1.696306E+07  0.000000E+00  1.000000E+00  0.000000E+00  0.000000E+00  1.024000E+03  0.000000E+00  3.392988E-17  2.951354E-01    1 
 5.000000E-01  5.000000E-01  2.750000E+01  4.155681E+01  1.695302E+07  0.000000E+00  1.000000E+00  0.000000E+00  0.000000E+00  1.024000E+03  0.000000E+00  3.393510E-17  2.953714E-01    1 
 5.000000E-01  5.000000E-01  2.850000E+01  4.151591E+01  1.694299E+07  0.000000E+00  1.000000E+00  0.000000E+00  0.000000E+00  1.024000E+03  0.000000E+00  3.394033E-17  2.956076E-01    1 
 5.000000E-01  5.000000E-01  2.950000E+01  4.147501E+01  1.693295E+07  0.000000E+00  1.000000E+00  0.000000E+00  0.000000E+00  1.024000E+03  0.000000E+00  3.394556E-17  2.958440E-01    1 
 5.000000E-01  5.000000E-01  3.050000E+01  4.143411E+01  1.692292E+07  0.000000E+00  1.000000E+00  0.000000E+00  0.000000E+00  1.024000E+03  0.000000E+00  3.395080E-17  2.960806E-01    1 
 5.000000E-01  5.000000E-01  3.150000E+01  4.139322E+01  1.691288E+07  0.000000E+00  1.000000E+00  0.000000E+00  0.000000E+00  1.024000E+03  0.000000E+00  3.395604E-17  2.963173E-01    1 
 5.000000E-01  5.000000E-01  3.250000E+01  4.135233E+01  1.690285E+07  0.000000E+00  1.000000E+00  0.000000E+00  0.000000E+00  1.024000E+03  0.000000E+00  3.396129E-17  2.965543E-01    1 
 5.000000E-01  5.000000E-01  3.350000E+01  4.131144E+01  1.689281E+07  0.000000E+00  1.000000E+00  0.000000E+00  0.000000E+00  1.024000E+03  0.000000E+00  3.396654E-17  2.967915E-01    1 
 5.000000E-01  5.000000E-01  3.450000E+01  4.127056E+01  1.688278E+07  0.000000E+00  1.000000E+00  0.000000E+00  0.000000E+00  1.024000E+03  0.000000E+00  3.397180E-17  2.970288E-01    1 
 5.000000E-01  5.000000E-01  3.550000E+01  4.122969E+01  1.687274E+07  0.000000E+00  1.000000E+00  0.000000E+00  0.000000E+00  1.024000E+03  0.000000E+00  3.397706E-17  2.972663E-01    1 
 5.000000E-01  5.000000E-01  3.650000E+01  4.118881E+01  1.686271E+07  0.000000E+00  1.000000E+00  0.000000E+00  0.000000E+00  1.024000E+03  0.000000E+00  3.398233E-17  2.975040E-01    1 
 5.000000E-01  5.000000E-01  3.750000E+01  4.114794E+01  1.685267E+07  0.000000E+00  1.000000E+00  0.000000E+00  0.000000E+00  1.024000E+03  0.000000E+00  3.398760E-17  2.977419E-01    1 
 5.000000E-01  5.000000E-01  3.850000E+01  4.110708E+01  1.684264E+07  0.000000E+00  1.000000E+00  0.000000E+00  0.000000E+00  1.024000E+03  0.000000E+00  3.399288E-17  2.979800E-01    1 
 5.000000E-01  5.000000E-01  3.950000E+01  4.106622E+01  1.683260E+07  0.000000E+00  1.000000E+00  0.000000E+00  0.000000E+00  1.024000E+03  0.000000E+00  3.399816E-17  2.982183E-01    1 
 5.000000E-01  5.000000E-01  4.050000E+01  4.102536E+01  1.682256E+07  0.000000E+00  1.000000E+00  0.000000E+00  0.000000E+00  1.024000E+03  0.000000E+00  3.400345E-17  2.984568E-01    1 
 5.000000E-01  5.000000E-01  4.150000E+01  4.098450E+01  1.681253E+07  0.000000E+00  1.000000E+00  0.000000E+00  0.000000E+00  1.024000E+03  0.000000E+00  3.400874E-17  2.986955E-01    1 
 5.000000E-01  5.000000E-01  4.250000E+01  4.094365E+01  1.680249E+07  0.000000E+00  1.000000E+00  0.000000E+00  0.000000E+00  1.024000E+03  0.000000E+00  3.401404E-17  2.989343E-01    1 
 5.000000E-01  5.000000E-01  4.350000E+01  4.090281E+01  1.679246E+07  0.000000E+00  1.000000E+00  0.000000E+00  0.000000E+00  1.024000E+03  0.000000E+00  3.401934E-17  2.991734E-01    1 
 5.000000E-01  5.000000E-01  4.450000E+01  4.086196E+01  1.678242E+07  0.000000E+00  1.000000E+00  0.000000E+00  0.000000E+00  1.024000E+03  0.000000E+00  3.402465E-17  2.994126E-01    1 
 5.000000E-01  5.000000E-01  4.550000E+01  4.082112E+01  1.677239E+07  0.000000E+00  1.000000E+00  0.000000E+00  0.000000E+00  1.024000E+03  0.000000E+00  3.402996E-17  2.996521E-01    1 
 5.000000E-01  5.000000E-01  4.650000E+01  4.078029E+01  1.676235E+07  0.000000E+00  1.000000E+00  0.000000E+00  0.000000E+00  1.024000E+03  0.000000E+00  3.403528E-17  2.998917E-01    1 
 5.000000E-01  5.000000E-01  4.750000E+01  4.073946E+01  1.675232E+07  0.000000E+00  1.000000E+00  0.000000E+00  0.000000E+00  1.024000E+03  0.000000E+00  3.404060E-17  3.001315E-01    1 
 5.000000E-01  5.000000E-01  4.850000E+01  4.069863E+01  1.674228E+07  0.000000E+00  1.000000E+00  0.000000E+00  0.000000E+00  1.024000E+03  0.000000E+00  3.404593E-17  3.003715E-01    1 
 5.000000E-01  5.000000E-01  4.950000E+01  4.065781E+01  1.673225E+07  0.000000E+00  1.000000E+00  0.000000E+00  0.000000E+00  1.024000E+03  0.000000E+00  3.405126E-17  3.006117E-01    1 
 5.000000E-01  5.000000E-01  5.050000E+01  4.061699E+01  1.672221E+07  0.000000E+00  1.000000E+00  0.000000E+00  0.000000E+00  1.024000E+03  0.000000E+00  3.405660E-17  3.008521E-01    1 
 5.000000E-01  5.000000E-01  5.150000E+01  4.057617E+01  1.671218E+07  0.000000E+00  1.000000E+00  0.000000E+00  0.000000E+00  1.024000E+03  0.000000E+00  3.406195E-17  3.010927E-01    1 
 5.000000E-01  5.000000E-01  5.250000E+01  4.053536E+01  1.670214E+07  0.000000E+00  1.000000E+00  0.000000E+00  0.000000E+00  1.024000E+03  0.000000E+00  3.406729E-17  3.013335E-01    1 
 5.000000E-01  5.000000E-01  5.350000E+01  4.049455E+01  1.669211E+07  0.000000E+00  1.000000E+00  0.000000E+00  0.000000E+00  1.024000E+03  0.000000E+00  3.407265E-17  3.015744E-01    1 
 5.000000E-01  5.000000E-01  5.450000E+01  4.045375E+01  1.668207E+07  0.000000E+00  1.000000E+00  0.000000E+00  0.000000E+00  1.024000E+03  0.000000E+00  3.407801E-17  3.018156E-01    1 
 5.000000E-01  5.000000E-01  5.550000E+01  4.041295E+01  1.667204E+07  0.000000E+00  1.000000E+00  0.000000E+00  0.000000E+00  1.024000E+03  0.000000E+00  3.408337E-17  3.020570E-01    1 
 5.000000E-01  5.000000E-01  5.650000E+01  4.037215E+01  1.666200E+07  0.000000E+00  1.000000E+00  0.000000E+00  0.000000E+00  1.024000E+03  0.000000E+00  3.408874E-17  3.022985E-01    1 
 5.000000E-01  5.000000E-01  5.750000E+01  4.033136E+01  1.665196E+07  1.665198E+07  9.999820E-01  1.797281E-05  0.000000E+00  1.024000E+03  1.580988E+02  3.409411E-17  3.025403E-01    1 
 5.000000E-01  5.000000E-01  5.850000E+01  4.029057E+01  1.664193E+07  1.664197E+07  9.999382E-01  6.175011E-05  0.000000E+00  1.024000E+03  1.580352E+02  3.409949E-17  3.027822E-01    1 
 5.000000E-01  5.000000E-01  5.950000E+01  4.024978E+01  1.663189E+07  1.663196E+07  9.998950E-01  1.049559E-04  0.000000E+00  1.024000E+03  1.579715E+02  3.410488E-17  3.030243E-01    1 
 5.000000E-01  5.000000E-01  6.050000E+01  4.020900E+01  1.662186E+07  1.662195E+07  9.998523E-01  1.477178E-04  0.000000E+00  1.024000E+03  1.579079E+02  3.411027E-17  3.032666E-01    1 
 5.000000E-01  5.000000E-01  6.150000E+01  4.016823E+01  1.661182E+07  1.661194E+07  9.998095E-01  1.905305E-04  0.000000E+00  1.024000E+03  1.578441E+02  3.411566E-17  3.035092E-01    1 
 5.000000E-01  5.000000E-01  6.250000E+01  4.012745E+01  1.660179E+07  1.660193E+07  9.997660E-01  2.339969E-04  0.000000E+00  1.024000E+03  1.577804E+02  3.412106E-17  3.037519E-01    1 
 5.000000E-01  5.000000E-01  6.350000E+01  4.008668E+01  1.659175E+07  1.659192E+07  9.997218E-01  2.782251E-04  0.000000E+00  1.024000E+03  1.577166E+02  3.412647E-17  3.039948E-01    1 
 5.000000E-01  5.000000E-01  6.450000E+01  4.004591E+01  1.658172E+07  1.658191E+07  9.996770E-01  3.229644E-04  0.000000E+00  1.024000E+03  1.576528E+02  3.413188E-17  3.042379E-01    1 
 5.000000E-01  5.000000E-01  6.550000E+01  4.000515E+01  1.657168E+07  1.657190E+07  9.996314E-01  3.686475E-04  0.000000E+00  1.024000E+03  1.575890E+02  3.413729E-17  3.044812E-01    1 
 5.000000E-01  5.000000E-01  6.650000E+01  3.996439E+01  1.656164E+07  1.656190E+07  9.995842E-01  4.157659E-04  0.000000E+00  1.024000E+03  1.575252E+02  3.414271E-17  3.047247E-01    1 
 5.000000E-01  5.000000E-01  6.750000E+01  3.992364E+01  1.655161E+07  1.655189E+07  9.995354E-01  4.645920E-04  0.000000E+00  1.024000E+03  1.574613E+02  3.414814E-17  3.049683E-01    1 
 5.000000E-01  5.000000E-01  6.850000E+01  3.988289E+01  1.654157E+07  1.654188E+07  9.994851E-01  5.148657E-04  0.000000E+00  1.024000E+03  1.573974E+02  3.415357E-17  3.052122E-01    1 
 5.000000E-01  5.000000E-01  6.950000E+01  3.984214E+01  1.653154E+07  1.653188E+07  9.994341E-01  5.658938E-04  0.000000E+00  1.024000E+03  1.573335E+02  3.415901E-17  3.054563E-01    1 
 5.000000E-01  5.000000E-01  7.050000E+01  3.980140E+01  1.652150E+07  1.652187E+07  9.993827E-01  6.173367E-04  0.000000E+00  1.024000E+03  1.572696E+02  3.416445E-17  3.057006E-01    1 
 5.000000E-01  5.000000E-01  7.150000E+01  3.976065E+01  1.651146E+07  1.651187E+07  9.993307E-01  6.693473E-04  0.000000E+00  1.024000E+03  1.572057E+02  3.416989E-17  3.059450E-01    1 
 5.000000E-01  5.000000E-01  7.250000E+01  3.971992E+01  1.650143E+07  1.650186E+07  9.992787E-01  7.212951E-04  0.000000E+00  1.024000E+03  1.571417E+02  3.417535E-17  3.061897E-01    1 
 5.000000E-01  5.000000E-01  7.350000E+01  3.967919E+01  1.649139E+07  1.649186E+07  9.992268E-01  7.732047E-04  0.000000E+00  1.024000E+03  1.570777E+02  3.418080E-17  3.064345E-01    1 
 5.000000E-01  5.000000E-01  7.450000E+01  3.963846E+01  1.648135E+07  1.648185E+07  9.991751E-01  8.248536E-04  0.000000E+00  1.024000E+03  1.570136E+02  3.418627E-17  3.066796E-01    1 
 5.000000E-01  5.000000E-01  7.550000E+01  3.959773E+01  1.647132E+07  1.647184E+07  9.991236E-01  8.763679E-04  0.000000E+00  1.024000E+03  1.569496E+02  3.419173E-17  3.069248E-01    1 
 5.000000E-01  5.000000E-01  7.650000E+01  3.955701E+01  1.646128E+07  1.646184E+07  9.990721E-01  9.278608E-04  0.000000E+00  1.024000E+03  1.568855E+02  3.419721E-17  3.071703E-01    1 
 5.000000E-01  5.000000E-01  7.750000E+01  3.951629E+01  1.645124E+07  1.645183E+07  9.990204E-01  9.795906E-04  0.000000E+00  1.024000E+03  1.568213E+02  3.420268E-17  3.074159E-01    1 
 5.000000E-01  5.000000E-01  7.850000E+01  3.947558E+01  1.644121E+07  1.644183E+07  9.989682E-01  1.031761E-03  0.000000E+00  1.024000E+03  1.567572E+02  3.420817E-17  3.076617E-01    1 
 5.000000E-01  5.000000E-01  7.950000E+01  3.943487E+01  1.643117E+07  1.643182E+07  9.989153E-01  1.084677E-03  0.000000E+00  1.024000E+03  1.566930E+02  3.421366E-17  3.079078E-01    1 
 5.000000E-01  5.000000E-01  8.050000E+01  3.939416E+01  1.642113E+07  1.642182E+07  9.988614E-01  1.138624E-03  0.000000E+00  1.024000E+03  1.566288E+02  3.421915E-17  3.081540E-01    1 
 5.000000E-01  5.000000E-01  8.150000E+01  3.935346E+01  1.641110E+07  1.641181E+07  9.988062E-01  1.193796E-03  0.000000E+00  1.024000E+03  1.565646E+02  3.422465E-17  3.084004E-01    1 
 5.000000E-01  5.000000E-01  8.250000E+01  3.931276E+01  1.640106E+07  1.640181E+07  9.987497E-01  1.250306E-03  0.000000E+00  1.024000E+03  1.565004E+02  3.423015E-17  3.086470E-01    1 
 5.000000E-01  5.000000E-01  8.350000E+01  3.927206E+01  1.639102E+07  1.639180E+07  9.986918E-01  1.308203E-03  0.000000E+00  1.024000E+03  1.564361E+02  3.423566E-17  3.088939E-01    1 
 5.000000E-01  5.000000E-01  8.450000E+01  3.923137E+01  1.638098E+07  1.638180E+07  9.986325E-01  1.367520E-03  0.000000E+00  1.024000E+03  1.563718E+02  3.424118E-17  3.091409E-01    1 
 5.000000E-01  5.000000E-01  8.550000E+01  3.919068E+01  1.637095E+07  1.637180E+07  9.985717E-01  1.428282E-03  0.000000E+00  1.024000E+03  1.563075E+02  3.424670E-17  3.093881E-01    1 
 5.000000E-01  5.000000E-01  8.650000E+01  3.915000E+01  1.636091E+07  1.636180E+07  9.985095E-01  1.490520E-03  0.000000E+00  1.024000E+03  1.562432E+02  3.425222E-17  3.096355E-01    1 
 5.000000E-01  5.000000E-01  8.750000E+01  3.910932E+01  1.635087E+07  1.635180E+07  9.984457E-01  1.554259E-03  0.000000E+00  1.024000E+03  1.561788E+02  3.425775E-17  3.098831E-01    1 
 5.000000E-01  5.000000E-01  8.850000E+01  3.906864E+01  1.634083E+07  1.634180E+07  9.983805E-01  1.619505E-03  0.000000E+00  1.024000E+03  1.561145E+02  3.426329E-17  3.101309E-01    1 
 5.000000E-01  5.000000E-01  8.950000E+01  3.902797E+01  1.633080E+07  1.633180E+07  9.983138E-01  1.686216E-03  0.000000E+00  1.024000E+03  1.560501E+02  3.426883E-17  3.103789E-01    1 
 5.000000E-01  5.000000E-01  9.050000E+01  3.898730E+01  1.632076E+07  1.632180E+07  9.982457E-01  1.754279E-03  0.000000E+00  1.024000E+03  1.559857E+02  3.427438E-17  3.106271E-01    1 
 5.000000E-01  5.000000E-01  9.150000E+01  3.894664E+01  1.631072E+07  1.631180E+07  9.981765E-01  1.823491E-03  0.000000E+00  1.024000E+03  1.559212E+02  3.427993E-17  3.108755E-01    1 
 5.000000E-01  5.000000E-01  9.250000E+01  3.890597E+01  1.630068E+07  1.630181E+07  9.981064E-01  1.893569E-03  0.000000E+00  1.024000E+03  1.558568E+02  3.428549E-17  3.111241E-01    1 
 5.000000E-01  5.000000E-01  9.350000E+01  3.886531E+01  1.629064E+07  1.629181E+07  9.980358E-01  1.964176E-03  0.000000E+00  1.024000E+03  1.557923E+02  3.429105E-17  3.113729E-01    1 
 5.000000E-01  5.000000E-01  9.450000E+01  3.882466E+01  1.628061E+07  1.628181E+07  9.979650E-01  2.034981E-03  0.000000E+00  1.024000E+03  1.557278E+02  3.429662E-17  3.116219E-01    1 
 5.000000E-01  5.000000E-01  9.550000E+01  3.878401E+01  1.627057E+07  1.627182E+07  9.978943E-01  2.105743E-03  0.000000E+00  1.024000E+03  1.556632E+02  3.430219E-17  3.118711E-01    1 
 5.000000E-01  5.000000E-01  9.650000E+01  3.874336E+01  1.626053E+07  1.626182E+07  9.978236E-01  2.176375E-03  0.000000E+00  1.024000E+03  1.555986E+02  3.430777E-17  3.121205E-01    1 
 5.000000E-01  5.000000E-01  9.750000E+01  3.870272E+01  1.625049E+07  1.625182E+07  9.977530E-01  2.246976E-03  0.000000E+00  1.024000E+03  1.555340E+02  3.431336E-17  3.123701E-01    1 
 5.000000E-01  5.000000E-01  9.850000E+01  3.866208E+01  1.624045E+07  1.624182E+07  9.976822E-01  2.317812E-03  0.000000E+00  1.024000E+03  1.554694E+02  3.431895E-17  3.126199E-01    1 
 5.000000E-01  5.000000E-01  9.950000E+01  3.862144E+01  1.623041E+07  1.623182E+07  9.976108E-01  2.389245E-03  0.000000E+00  1.024000E+03  1.554048E+02  3.432454E-17  3.128699E-01    1 
 5.000000E-01  5.000000E-01  1.005000E+02  3.858081E+01  1.622038E+07  1.622183E+07  9.975383E-01  2.461653E-03  0.000000E+00  1.024000E+03  1.553401E+02  3.433014E-17  3.131201E-01    1 
 5.000000E-01  5.000000E-01  1.015000E+02  3.854018E+01  1.621034E+07  1.621183E+07  9.974647E-01  2.535340E-03  0.000000E+00  1.024000E+03  1.552754E+02  3.433575E-17  3.133705E-01    1 
 5.000000E-01  5.000000E-01  1.025000E+02  3.849955E+01  1.620030E+07  1.620183E+07  9.973895E-01  2.610481E-03  0.000000E+00  1.024000E+03  1.552106E+02  3.434136E-17  3.136211E-01    1 
 5.000000E-01  5.000000E-01  1.035000E+02  3.845893E+01  1.619026E+07  1.619184E+07  9.973129E-01  2.687079E-03  0.000000E+00  1.024000E+03  1.551459E+02  3.434698E-17  3.138719E-01    1 
 5.000000E-01  5.000000E-01  1.045000E+02  3.841831E+01  1.618022E+07  1.618184E+07  9.972350E-01  2.764965E-03  0.000000E+00  1.024000E+03  1.550811E+02  3.435260E-17  3.141229E-01    1 
 5.000000E-01  5.000000E-01  1.055000E+02  3.837770E+01  1.617018E+07  1.617185E+07  9.971562E-01  2.843808E-03  0.000000E+00  1.024000E+03  1.550163E+02  3.435823E-17  3.143741E-01    1 
 5.000000E-01  5.000000E-01  1.065000E+02  3.833709E+01  1.616014E+07  1.616185E+07  9.970769E-01  2.923146E-03  0.000000E+00  1.024000E+03  1.549515E+02  3.436386E-17  3.146255E-01    1 
 5.000000E-01  5.000000E-01  1.075000E+02  3.829648E+01  1.615010E+07  1.615186E+07  9.969976E-01  3.002428E-03  0.000000E+00  1.024000E+03  1.548867E+02  3.436950E-17  3.148771E-01    1 
 5.000000E-01  5.000000E-01  1.085000E+02  3.825588E+01  1.614006E+07  1.614186E+07  9.969189E-01  3.081063E-03  0.000000E+00  1.024000E+03  1.548218E+02  3.437514E-17  3.151289E-01    1 
 5.000000E-01  5.000000E-01  1.095000E+02  3.821528E+01  1.613002E+07  1.613187E+07  9.968415E-01  3.158475E-03  0.000000E+00  1.024000E+03  1.547569E+02  3.438079E-17  3.153809E-01    1 
 5.000000E-01  5.000000E-01  1.105000E+02  3.817468E+01  1.611998E+07  1.612187E+07  9.967658E-01  3.234160E-03  0.000000E+00  1.024000E+03  1.546919E+02  3.438645E-17  3.156331E-01    1 
 5.000000E-01  5.000000E-01  1.115000E+02  3.813409E+01  1.610994E+07  1.611187E+07  9.966923E-01  3.307727E-03  0.000000E+00  1.024000E+03  1.546269E+02  3.439211E-17  3.158855E-01    1 
 5.000000E-01  5.000000E-01  1.125000E+02  3.809350E+01  1.609990E+07  1.610187E+07  9.966211E-01  3.378931E-03  0.000000E+00  1.024000E+03  1.545619E+02  3.439777E-17  3.161381E-01    1 
 5.000000E-01  5.000000E-01  1.135000E+02  3.805291E+01  1.608986E+07  1.609187E+07  9.965523E-01  3.447683E-03  0.000000E+00  1.024000E+03  1.544968E+02  3.440344E-17  3.163909E-01    1 
 5.000000E-01  5.000000E-01  1.145000E+02  3.801233E+01  1.607982E+07  1.608186E+07  9.964860E-01  3.514042E-03  0.000000E+00  1.024000E+03  1.544317E+02  3.440912E-17  3.166439E-01    1 
 5.000000E-01  5.000000E-01  1.155000E+02  3.797175E+01  1.606978E+07  1.607186E+07  9.964218E-01  3.578187E-03  0.000000E+00  1.024000E+03  1.543665E+02  3.441480E-17  3.168971E-01    1 
 5.000000E-01  5.000000E-01  1.165000E+02  3.793118E+01  1.605974E+07  1.606185E+07  9.963596E-01  3.640378E-03  0.000000E+00  1.024000E+03  1.543013E+02  3.442049E-17  3.171506E-01    1 
 5.000000E-01  5.000000E-01  1.175000E+02  3.789061E+01  1.604970E+07  1.605185E+07  9.962991E-01  3.700921E-03  0.000000E+00  1.024000E+03  1.542361E+02  3.442618E-17  3.174042E-01    1 
 5.000000E-01  5.000000E-01  1.185000E+02  3.785004E+01  1.603966E+07  1.604184E+07  9.962399E-01  3.760118E-03  0.000000E+00  1.024000E+03  1.541709E+02  3.443188E-17  3.176580E-01    1 
 5.000000E-01  5.000000E-01  1.195000E+02  3.780948E+01  1.602962E+07  1.603183E+07  9.961818E-01  3.818248E-03  0.000000E+00  1.024000E+03  1.541056E+02  3.443758E-17  3.179120E-01    1 
 5.000000E-01  5.000000E-01  1.205000E+02  3.776892E+01  1.601958E+07  1.602182E+07  9.961245E-01  3.875537E-03  0.000000E+00  1.024000E+03  1.540402E+02  3.444329E-17  3.181663E-01    1 
 5.000000E-01  5.000000E-01  1.215000E+02  3.772837E+01  1.600954E+07  1.601181E+07  9.960678E-01  3.932158E-03  0.000000E+00  1.024000E+03  1.539749E+02  3.444901E-17  3.184207E-01    1 
 5.000000E-01  5.000000E-01  1.225000E+02  3.768781E+01  1.599950E+07  1.600180E+07  9.960118E-01  3.988224E-03  0.000000E+00  1.024000E+03  1.539095E+02  3.445473E-17  3.186753E-01    1 
 5.000000E-01  5.000000E-01  1.235000E+02  3.764727E+01  1.598946E+07  1.599179E+07  9.959562E-01  4.043803E-03  0.000000E+00  1.024000E+03  1.538440E+02  3.446046E-17  3.189302E-01    1 
 5.000000E-01  5.000000E-01  1.245000E+02  3.760672E+01  1.597942E+07  1.598178E+07  9.959011E-01  4.098929E-03  0.000000E+00  1.024000E+03  1.537786E+02  3.446619E-17  3.191852E-01    1 
 5.000000E-01  5.000000E-01  1.255000E+02  3.756618E+01  1.596938E+07  1.597177E+07  9.958464E-01  4.153609E-03  0.000000E+00  1.024000E+03  1.537131E+02  3.447192E-17  3.194405E-01    1 
 5.000000E-01  5.000000E-01  1.265000E+02  3.752565E+01  1.595933E+07  1.596176E+07  9.957922E-01  4.207839E-03  0.000000E+00  1.024000E+03  1.536476E+02  3.447767E-17  3.196959E-01    1 
 5.000000E-01  5.000000E-01  1.275000E+02  3.748511E+01  1.594929E+07  1.595174E+07  9.957384E-01  4.261614E-03  0.000000E+00  1.024000E+03  1.535820E+02  3.448342E-17  3.199516E-01    1 
 5.000000E-01  5.000000E-01  1.285000E+02  3.744458E+01  1.593925E+07  1.594173E+07  9.956851E-01  4.314930E-03  0.000000E+00  1.024000E+03  1.535165E+02  3.448917E-17  3.202074E-01    1 
 5.000000E-01  5.000000E-01  1.295000E+02  3.740406E+01  1.592921E+07  1.593172E+07  9.956322E-01  4.367792E-03  0.000000E+00  1.024000E+03  1.534508E+02  3.449493E-17  3.204635E-01    1 
 5.000000E-01  5.000000E-01  1.305000E+02  3.736354E+01  1.591917E+07  1.592170E+07  9.955798E-01  4.420214E-03  0.000000E+00  1.024000E+03  1.533852E+02  3.450069E-17  3.207197E-01    1 
 5.000000E-01  5.000000E-01  1.315000E+02  3.732302E+01  1.590913E+07  1.591169E+07  9.955278E-01  4.472219E-03  0.000000E+00  1.024000E+03  1.533195E+02  3.450646E-17  3.209762E-01    1 
 5.000000E-01  5.000000E-01  1.325000E+02  3.728251E+01  1.589908E+07  1.590168E+07  9.954762E-01  4.523839E-03  0.000000E+00  1.024000E+03  1.532538E+02  3.451224E-17  3.212329E-01    1 
 5.000000E-01  5.000000E-01  1.335000E+02  3.724200E+01  1.588904E+07  1.589166E+07  9.954249E-01  4.575113E-03  0.000000E+00  1.024000E+03  1.531881E+02  3.451802E-17  3.214898E-01    1 
 5.000000E-01  5.000000E-01  1.345000E+02  3.720149E+01  1.587900E+07  1.588165E+07  9.953739E-01  4.626084E-03  0.000000E+00  1.024000E+03  1.531223E+02  3.452381E-17  3.217469E-01    1 
 5.000000E-01  5.000000E-01  1.355000E+02  3.716099E+01  1.586896E+07  1.587163E+07  9.953232E-01  4.676800E-03  0.000000E+00  1.024000E+03  1.530565E+02  3.452960E-17  3.220042E-01    1 
 5.000000E-01  5.000000E-01  1.365000E+02  3.712049E+01  1.585892E+07  1.586162E+07  9.952727E-01  4.727310E-03  0.000000E+00  1.024000E+03  1.529907E+02  3.453540E-17  3.222617E-01    1 
 5.000000E-01  5.000000E-01  1.375000E+02  3.707999E+01  1.584887E+07  1.585160E+07  9.952223E-01  4.777661E-03  0.000000E+00  1.024000E+03  1.529249E+02  3.454121E-17  3.225194E-01    1 
 5.000000E-01  5.000000E-01  1.385000E+02  3.703950E+01  1.583883E+07  1.584159E+07  9.951721E-01  4.827902E-03  0.000000E+00  1.024000E+03  1.528590E+02  3.454701E-17  3.227773E-01    1 
 5.000000E-01  5.000000E-01  1.395000E+02  3.699902E+01  1.582879E+07  1.583157E+07  9.951219E-01  4.878078E-03  0.000000E+00  1.024000E+03  1.527931E+02  3.455283E-17  3.230354E-01    1 
 5.000000E-01  5.000000E-01  1.405000E+02  3.695853E+01  1.581875E+07  1.582155E+07  9.950718E-01  4.928233E-03  0.000000E+00  1.024000E+03  1.527271E+02  3.455865E-17  3.232937E-01    1 
 5.000000E-01  5.000000E-01  1.415000E+02  3.691805E+01  1.580870E+07  1.581154E+07  9.950216E-01  4.978408E-03  0.000000E+00  1.024000E+03  1.526611E+02  3.456448E-17  3.235523E-01    1 
 5.000000E-01  5.000000E-01  1.425000E+02  3.687758E+01  1.579866E+07  1.580152E+07  9.949714E-01  5.028641E-03  0.000000E+00  1.024000E+03  1.525951E+02  3.457031E-17  3.238110E-01    1 
 5.000000E-01  5.000000E-01  1.435000E+02  3.683711E+01  1.578862E+07  1.579151E+07  9.949210E-01  5.078970E-03  0.000000E+00  1.024000E+03  1.525291E+02  3.457615E-17  3.240699E-01    1 
 5.000000E-01  5.000000E-01  1.445000E+02  3.679664E+01  1.577858E+07  1.578149E+07  9.948706E-01  5.129427E-03  0.000000E+00  1.024000E+03  1.524630E+02  3.458199E-17  3.243291E-01    1 
 5.000000E-01  5.000000E-01  1.455000E+02  3.675617E+01  1.576853E+07  1.577147E+07  9.948200E-01  5.180046E-03  0.000000E+00  1.024000E+03  1.523970E+02  3.458784E-17  3.245885E-01    1 
 5.000000E-01  5.000000E-01  1.465000E+02  3.671571E+01  1.575849E+07  1.576146E+07  9.947691E-01  5.230859E-03  0.000000E+00  1.024000E+03  1.523308E+02  3.459370E-17  3.248480E-01    1 
 5.000000E-01  5.000000E-01  1.475000E+02  3.667526E+01  1.574845E+07  1.575144E+07  9.947181E-01  5.281896E-03  0.000000E+00  1.024000E+03  1.522647E+02  3.459956E-17  3.251078E-01    1 
 5.000000E-01  5.000000E-01  1.485000E+02  3.663480E+01  1.573840E+07  1.574142E+07  9.946668E-01  5.333185E-03  0.000000E+00  1.024000E+03  1.521985E+02  3.460542E-17  3.253678E-01    1 
 5.000000E-01  5.000000E-01  1.495000E+02  3.659435E+01  1.572836E+07  1.573141E+07  9.946152E-01  5.384758E-03  0.000000E+00  1.024000E+03  1.521323E+02  3.461129E-17  3.256280E-01    1 
 5.000000E-01  5.000000E-01  1.505000E+02  3.655391E+01  1.571832E+07  1.572139E+07  9.945634E-01  5.436642E-03  0.000000E+00  1.024000E+03  1.520661E+02  3.461717E-17  3.258884E-01    1 
 5.000000E-01  5.000000E-01  1.515000E+02  3.651347E+01  1.570827E+07  1.571137E+07  9.945111E-01  5.488870E-03  0.000000E+00  1.024000E+03  1.519998E+02  3.462306E-17  3.261490E-01    1 
 5.000000E-01  5.000000E-01  1.525000E+02  3.647303E+01  1.569823E+07  1.570136E+07  9.944585E-01  5.541472E-03  0.000000E+00  1.024000E+03  1.519335E+02  3.462894E-17  3.264098E-01    1 
 5.000000E-01  5.000000E-01  1.535000E+02  3.643260E+01  1.568818E+07  1.569134E+07  9.944055E-01  5.594481E-03  0.000000E+00  1.024000E+03  1.518672E+02  3.463484E-17  3.266708E-01    1 
 5.000000E-01  5.000000E-01  1.545000E+02  3.639217E+01  1.567814E+07  1.568132E+07  9.943521E-01  5.647934E-03  0.000000E+00  1.024000E+03  1.518009E+02  3.464074E-17  3.269320E-01    1 
 5.000000E-01  5.000000E-01  1.555000E+02  3.635174E+01  1.566810E+07  1.567131E+07  9.942981E-01  5.701868E-03  0.000000E+00  1.024000E+03  1.517345E+02  3.464665E-17  3.271935E-01    1 
 5.000000E-01  5.000000E-01  1.565000E+02  3.631132E+01  1.565805E+07  1.566129E+07  9.942437E-01  5.756325E-03  0.000000E+00  1.024000E+03  1.516681E+02  3.465256E-17  3.274551E-01    1 