TITLE = "  5.14000E+04 [y]"
VARIABLES="X [m]","Y [m]","Z [m]","Temperature [C]","Liquid Pressure [Pa]","Gas Pressure [Pa]","Liquid Saturation","Gas Saturation","Hydrate Saturation","Liquid Density [kg/m^3]","Gas Density [kg/m^3]","Permeability X [m^2]","Porosity","Material ID"
ZONE T="5.14000E+04", STRANDID=1, SOLUTIONTIME=5.14000E+04, I=1, J=1, K=1000, DATAPACKING=POINT
 5.000000E-01  5.000000E-01  5.000000E-01  4.264884E+01  1.717011E+07  0.000000E+00  1.000000E+00  0.000000E+00  0.000000E+00  1.024000E+03  0.000000E+00  3.379583E-17  2.890648E-01    1 
 5.000000E-01  5.000000E-01  1.500000E+00  4.260784E+01  1.716007E+07  0.000000E+00  1.000000E+00  0.000000E+00  0.000000E+00  1.024000E+03  0.000000E+00  3.380093E-17  2.892959E-01    1 
 5.000000E-01  5.000000E-01  2.500000E+00  4.256684E+01  1.715004E+07  0.000000E+00  1.000000E+00  0.000000E+00  0.000000E+00  1.024000E+03  0.000000E+00  3.380603E-17  2.895273E-01    1 
 5.000000E-01  5.000000E-01  3.500000E+00  4.252584E+01  1.714000E+07  0.000000E+00  1.000000E+00  0.000000E+00  0.000000E+00  1.024000E+03  0.000000E+00  3.381113E-17  2.897588E-01    1 
 5.000000E-01  5.000000E-01  4.500000E+00  4.248485E+01  1.712997E+07  0.000000E+00  1.000000E+00  0.000000E+00  0.000000E+00  1.024000E+03  0.000000E+00  3.381624E-17  2.899905E-01    1 
 5.000000E-01  5.000000E-01  5.500000E+00  4.244385E+01  1.711993E+07  0.000000E+00  1.000000E+00  0.000000E+00  0.000000E+00  1.024000E+03  0.000000E+00  3.382135E-17  2.902224E-01    1 
 5.000000E-01  5.000000E-01  6.500000E+00  4.240287E+01  1.710990E+07  0.000000E+00  1.000000E+00  0.000000E+00  0.000000E+00  1.024000E+03  0.000000E+00  3.382647E-17  2.904545E-01    1 
 5.000000E-01  5.000000E-01  7.500000E+00  4.236188E+01  1.709986E+07  0.000000E+00  1.000000E+00  0.000000E+00  0.000000E+00  1.024000E+03  0.000000E+00  3.383160E-17  2.906868E-01    1 
 5.000000E-01  5.000000E-01  8.500000E+00  4.232090E+01  1.708983E+07  0.000000E+00  1.000000E+00  0.000000E+00  0.000000E+00  1.024000E+03  0.000000E+00  3.383673E-17  2.909192E-01    1 
 5.000000E-01  5.000000E-01  9.500000E+00  4.227993E+01  1.707979E+07  0.000000E+00  1.000000E+00  0.000000E+00  0.000000E+00  1.024000E+03  0.000000E+00  3.384186E-17  2.911519E-01    1 
 5.000000E-01  5.000000E-01  1.050000E+01  4.223896E+01  1.706976E+07  0.000000E+00  1.000000E+00  0.000000E+00  0.000000E+00  1.024000E+03  0.000000E+00  3.384700E-17  2.913847E-01    1 
 5.000000E-01  5.000000E-01  1.150000E+01  4.219799E+01  1.705972E+07  0.000000E+00  1.000000E+00  0.000000E+00  0.000000E+00  1.024000E+03  0.000000E+00  3.385214E-17  2.916177E-01    1 
 5.000000E-01  5.000000E-01  1.250000E+01  4.215702E+01  1.704969E+07  0.000000E+00  1.000000E+00  0.000000E+00  0.000000E+00  1.024000E+03  0.000000E+00  3.385729E-17  2.918509E-01    1 
 5.000000E-01  5.000000E-01  1.350000E+01  4.211606E+01  1.703965E+07  0.000000E+00  1.000000E+00  0.000000E+00  0.000000E+00  1.024000E+03  0.000000E+00  3.386244E-17  2.920843E-01    1 
 5.000000E-01  5.000000E-01  1.450000E+01  4.207510E+01  1.702962E+07  0.000000E+00  1.000000E+00  0.000000E+00  0.000000E+00  1.024000E+03  0.000000E+00  3.386760E-17  2.923179E-01    1 
 5.000000E-01  5.000000E-01  1.550000E+01  4.203415E+01  1.701958E+07  0.000000E+00  1.000000E+00  0.000000E+00  0.000000E+00  1.024000E+03  0.000000E+00  3.387276E-17  2.925516E-01    1 
 5.000000E-01  5.000000E-01  1.650000E+01  4.199320E+01  1.700954E+07  0.000000E+00  1.000000E+00  0.000000E+00  0.000000E+00  1.024000E+03  0.000000E+00  3.387793E-17  2.927856E-01    1 
 5.000000E-01  5.000000E-01  1.750000E+01  4.195225E+01  1.699951E+07  0.000000E+00  1.000000E+00  0.000000E+00  0.000000E+00  1.024000E+03  0.000000E+00  3.388310E-17  2.930197E-01    1 
 5.000000E-01  5.000000E-01  1.850000E+01  4.191131E+01  1.698947E+07  0.000000E+00  1.000000E+00  0.000000E+00  0.000000E+00  1.024000E+03  0.000000E+00  3.388828E-17  2.932541E-01    1 
 5.000000E-01  5.000000E-01  1.950000E+01  4.187037E+01  1.697944E+07  0.000000E+00  1.000000E+00  0.000000E+00  0.000000E+00  1.024000E+03  0.000000E+00  3.389346E-17  2.934886E-01    1 
 5.000000E-01  5.000000E-01  2.050000E+01  4.182944E+01  1.696940E+07  0.000000E+00  1.000000E+00  0.000000E+00  0.000000E+00  1.024000E+03  0.000000E+00  3.389865E-17  2.937233E-01    1 
 5.000000E-01  5.000000E-01  2.150000E+01  4.178850E+01  1.695937E+07  0.000000E+00  1.000000E+00  0.000000E+00  0.000000E+00  1.024000E+03  0.000000E+00  3.390384E-17  2.939581E-01    1 
 5.000000E-01  5.000000E-01  2.250000E+01  4.174758E+01  1.694933E+07  0.000000E+00  1.000000E+00  0.000000E+00  0.000000E+00  1.024000E+03  0.000000E+00  3.390904E-17  2.941932E-01    1 
 5.000000E-01  5.000000E-01  2.350000E+01  4.170665E+01  1.693930E+07  0.000000E+00  1.000000E+00  0.000000E+00  0.000000E+00  1.024000E+03  0.000000E+00  3.391424E-17  2.944285E-01    1 
 5.000000E-01  5.000000E-01  2.450000E+01  4.166573E+01  1.692926E+07  0.000000E+00  1.000000E+00  0.000000E+00  0.000000E+00  1.024000E+03  0.000000E+00  3.391945E-17  2.946639E-01    1 
 5.000000E-01  5.000000E-01  2.550000E+01  4.162481E+01  1.691923E+07  0.000000E+00  1.000000E+00  0.000000E+00  0.000000E+00  1.024000E+03  0.000000E+00  3.392466E-17  2.948996E-01    1 
 5.000000E-01  5.000000E-01  2.650000E+01  4.158390E+01  1.690919E+07  0.000000E+00  1.000000E+00  0.000000E+00  0.000000E+00  1.024000E+03  0.000000E+00  3.392988E-17  2.951354E-01    1 
 5.000000E-01  5.000000E-01  2.750000E+01  4.154299E+01  1.689916E+07  0.000000E+00  1.000000E+00  0.000000E+00  0.000000E+00  1.024000E+03  0.000000E+00  3.393510E-17  2.953714E-01    1 
 5.000000E-01  5.000000E-01  2.850000E+01  4.150209E+01  1.688912E+07  0.000000E+00  1.000000E+00  0.000000E+00  0.000000E+00  1.024000E+03  0.000000E+00  3.394033E-17  2.956076E-01    1 
 5.000000E-01  5.000000E-01  2.950000E+01  4.146118E+01  1.687909E+07  0.000000E+00  1.000000E+00  0.000000E+00  0.000000E+00  1.024000E+03  0.000000E+00  3.394556E-17  2.958440E-01    1 
 5.000000E-01  5.000000E-01  3.050000E+01  4.142028E+01  1.686905E+07  0.000000E+00  1.000000E+00  0.000000E+00  0.000000E+00  1.024000E+03  0.000000E+00  3.395080E-17  2.960806E-01    1 
 5.000000E-01  5.000000E-01  3.150000E+01  4.137939E+01  1.685902E+07  0.000000E+00  1.000000E+00  0.000000E+00  0.000000E+00  1.024000E+03  0.000000E+00  3.395604E-17  2.963173E-01    1 
 5.000000E-01  5.000000E-01  3.250000E+01  4.133850E+01  1.684898E+07  0.000000E+00  1.000000E+00  0.000000E+00  0.000000E+00  1.024000E+03  0.000000E+00  3.396129E-17  2.965543E-01    1 
 5.000000E-01  5.000000E-01  3.350000E+01  4.129761E+01  1.683895E+07  0.000000E+00  1.000000E+00  0.000000E+00  0.000000E+00  1.024000E+03  0.000000E+00  3.396654E-17  2.967915E-01    1 
 5.000000E-01  5.000000E-01  3.450000E+01  4.125673E+01  1.682891E+07  0.000000E+00  1.000000E+00  0.000000E+00  0.000000E+00  1.024000E+03  0.000000E+00  3.397180E-17  2.970288E-01    1 
 5.000000E-01  5.000000E-01  3.550000E+01  4.121585E+01  1.681888E+07  0.000000E+00  1.000000E+00  0.000000E+00  0.000000E+00  1.024000E+03  0.000000E+00  3.397706E-17  2.972663E-01    1 
 5.000000E-01  5.000000E-01  3.650000E+01  4.117497E+01  1.680884E+07  0.000000E+00  1.000000E+00  0.000000E+00  0.000000E+00  1.024000E+03  0.000000E+00  3.398233E-17  2.975040E-01    1 
 5.000000E-01  5.000000E-01  3.750000E+01  4.113410E+01  1.679880E+07  0.000000E+00  1.000000E+00  0.000000E+00  0.000000E+00  1.024000E+03  0.000000E+00  3.398760E-17  2.977419E-01    1 
 5.000000E-01  5.000000E-01  3.850000E+01  4.109323E+01  1.678877E+07  0.000000E+00  1.000000E+00  0.000000E+00  0.000000E+00  1.024000E+03  0.000000E+00  3.399288E-17  2.979800E-01    1 
 5.000000E-01  5.000000E-01  3.950000E+01  4.105237E+01  1.677873E+07  0.000000E+00  1.000000E+00  0.000000E+00  0.000000E+00  1.024000E+03  0.000000E+00  3.399816E-17  2.982183E-01    1 
 5.000000E-01  5.000000E-01  4.050000E+01  4.101151E+01  1.676870E+07  0.000000E+00  1.000000E+00  0.000000E+00  0.000000E+00  1.024000E+03  0.000000E+00  3.400345E-17  2.984568E-01    1 
 5.000000E-01  5.000000E-01  4.150000E+01  4.097065E+01  1.675866E+07  0.000000E+00  1.000000E+00  0.000000E+00  0.000000E+00  1.024000E+03  0.000000E+00  3.400874E-17  2.986955E-01    1 
 5.000000E-01  5.000000E-01  4.250000E+01  4.092979E+01  1.674863E+07  0.000000E+00  1.000000E+00  0.000000E+00  0.000000E+00  1.024000E+03  0.000000E+00  3.401404E-17  2.989343E-01    1 
 5.000000E-01  5.000000E-01  4.350000E+01  4.088894E+01  1.673859E+07  0.000000E+00  1.000000E+00  0.000000E+00  0.000000E+00  1.024000E+03  0.000000E+00  3.401934E-17  2.991734E-01    1 
 5.000000E-01  5.000000E-01  4.450000E+01  4.084810E+01  1.672856E+07  0.000000E+00  1.000000E+00  0.000000E+00  0.000000E+00  1.024000E+03  0.000000E+00  3.402465E-17  2.994126E-01    1 
 5.000000E-01  5.000000E-01  4.550000E+01  4.080726E+01  1.671852E+07  0.000000E+00  1.000000E+00  0.000000E+00  0.000000E+00  1.024000E+03  0.000000E+00  3.402996E-17  2.996521E-01    1 
 5.000000E-01  5.000000E-01  4.650000E+01  4.076642E+01  1.670849E+07  0.000000E+00  1.000000E+00  0.000000E+00  0.000000E+00  1.024000E+03  0.000000E+00  3.403528E-17  2.998917E-01    1 
 5.000000E-01  5.000000E-01  4.750000E+01  4.072558E+01  1.669845E+07  0.000000E+00  1.000000E+00  0.000000E+00  0.000000E+00  1.024000E+03  0.000000E+00  3.404060E-17  3.001315E-01    1 
 5.000000E-01  5.000000E-01  4.850000E+01  4.068475E+01  1.668842E+07  0.000000E+00  1.000000E+00  0.000000E+00  0.000000E+00  1.024000E+03  0.000000E+00  3.404593E-17  3.003715E-01    1 
 5.000000E-01  5.000000E-01  4.950000E+01  4.064392E+01  1.667838E+07  0.000000E+00  1.000000E+00  0.000000E+00  0.000000E+00  1.024000E+03  0.000000E+00  3.405126E-17  3.006117E-01    1 
 5.000000E-01  5.000000E-01  5.050000E+01  4.060310E+01  1.666835E+07  1.666835E+07  9.999904E-01  9.637504E-06  0.000000E+00  1.024000E+03  1.581145E+02  3.405660E-17  3.008521E-01    1 
 5.000000E-01  5.000000E-01  5.150000E+01  4.056228E+01  1.665831E+07  1.665834E+07  9.999454E-01  5.462383E-05  0.000000E+00  1.024000E+03  1.580509E+02  3.406195E-17  3.010927E-01    1 
 5.000000E-01  5.000000E-01  5.250000E+01  4.052147E+01  1.664827E+07  1.664834E+07  9.998990E-01  1.010106E-04  0.000000E+00  1.024000E+03  1.579873E+02  3.406729E-17  3.013335E-01    1 
 5.000000E-01  5.000000E-01  5.350000E+01  4.048065E+01  1.663824E+07  1.663833E+07  9.998509E-01  1.491146E-04  0.000000E+00  1.024000E+03  1.579237E+02  3.407265E-17  3.015744E-01    1 
 5.000000E-01  5.000000E-01  5.450000E+01  4.043984E+01  1.662820E+07  1.662832E+07  9.998061E-01  1.938762E-04  0.000000E+00  1.024000E+03  1.578601E+02  3.407801E-17  3.018156E-01    1 
 5.000000E-01  5.000000E-01  5.550000E+01  4.039904E+01  1.661817E+07  1.661831E+07  9.997604E-01  2.395563E-04  0.000000E+00  1.024000E+03  1.577964E+02  3.408337E-17  3.020570E-01    1 
 5.000000E-01  5.000000E-01  5.650000E+01  4.035824E+01  1.660813E+07  1.660831E+07  9.997155E-01  2.845252E-04  0.000000E+00  1.024000E+03  1.577328E+02  3.408874E-17  3.022985E-01    1 
 5.000000E-01  5.000000E-01  5.750000E+01  4.031744E+01  1.659810E+07  1.659830E+07  9.996720E-01  3.280273E-04  0.000000E+00  1.024000E+03  1.576690E+02  3.409411E-17  3.025403E-01    1 
 5.000000E-01  5.000000E-01  5.850000E+01  4.027664E+01  1.658806E+07  1.658829E+07  9.996284E-01  3.715954E-04  0.000000E+00  1.024000E+03  1.576053E+02  3.409949E-17  3.027822E-01    1 
 5.000000E-01  5.000000E-01  5.950000E+01  4.023585E+01  1.657803E+07  1.657828E+07  9.995848E-01  4.151529E-04  0.000000E+00  1.024000E+03  1.575415E+02  3.410488E-17  3.030243E-01    1 
 5.000000E-01  5.000000E-01  6.050000E+01  4.019507E+01  1.656799E+07  1.656827E+07  9.995410E-01  4.590264E-04  0.000000E+00  1.024000E+03  1.574777E+02  3.411027E-17  3.032666E-01    1 
 5.000000E-01  5.000000E-01  6.150000E+01  4.015428E+01  1.655795E+07  1.655826E+07  9.994965E-01  5.035168E-04  0.000000E+00  1.024000E+03  1.574139E+02  3.411566E-17  3.035092E-01    1 
 5.000000E-01  5.000000E-01  6.250000E+01  4.011350E+01  1.654792E+07  1.654825E+07  9.994512E-01  5.488109E-04  0.000000E+00  1.024000E+03  1.573500E+02  3.412106E-17  3.037519E-01    1 
 5.000000E-01  5.000000E-01  6.350000E+01  4.007273E+01  1.653788E+07  1.653824E+07  9.994050E-01  5.950391E-04  0.000000E+00  1.024000E+03  1.572861E+02  3.412647E-17  3.039948E-01    1 
 5.000000E-01  5.000000E-01  6.450000E+01  4.003195E+01  1.652785E+07  1.652823E+07  9.993576E-01  6.423888E-04  0.000000E+00  1.024000E+03  1.572222E+02  3.413188E-17  3.042379E-01    1 
 5.000000E-01  5.000000E-01  6.550000E+01  3.999118E+01  1.651781E+07  1.651823E+07  9.993090E-01  6.910365E-04  0.000000E+00  1.024000E+03  1.571583E+02  3.413729E-17  3.044812E-01    1 
 5.000000E-01  5.000000E-01  6.650000E+01  3.995042E+01  1.650777E+07  1.650822E+07  9.992590E-01  7.409507E-04  0.000000E+00  1.024000E+03  1.570944E+02  3.414271E-17  3.047247E-01    1 
 5.000000E-01  5.000000E-01  6.750000E+01  3.990966E+01  1.649774E+07  1.649821E+07  9.992081E-01  7.918778E-04  0.000000E+00  1.024000E+03  1.570304E+02  3.414814E-17  3.049683E-01    1 
 5.000000E-01  5.000000E-01  6.850000E+01  3.986890E+01  1.648770E+07  1.648821E+07  9.991565E-01  8.434645E-04  0.000000E+00  1.024000E+03  1.569664E+02  3.415357E-17  3.052122E-01    1 
 5.000000E-01  5.000000E-01  6.950000E+01  3.982814E+01  1.647766E+07  1.647820E+07  9.991046E-01  8.954250E-04  0.000000E+00  1.024000E+03  1.569024E+02  3.415901E-17  3.054563E-01    1 
 5.000000E-01  5.000000E-01  7.050000E+01  3.978739E+01  1.646763E+07  1.646820E+07  9.990524E-01  9.475808E-04  0.000000E+00  1.024000E+03  1.568383E+02  3.416445E-17  3.057006E-01    1 
 5.000000E-01  5.000000E-01  7.150000E+01  3.974665E+01  1.645759E+07  1.645819E+07  9.990002E-01  9.997721E-04  0.000000E+00  1.024000E+03  1.567743E+02  3.416989E-17  3.059450E-01    1 
 5.000000E-01  5.000000E-01  7.250000E+01  3.970590E+01  1.644755E+07  1.644819E+07  9.989481E-01  1.051878E-03  0.000000E+00  1.024000E+03  1.567102E+02  3.417535E-17  3.061897E-01    1 
 5.000000E-01  5.000000E-01  7.350000E+01  3.966516E+01  1.643752E+07  1.643818E+07  9.988961E-01  1.103919E-03  0.000000E+00  1.024000E+03  1.566460E+02  3.418080E-17  3.064345E-01    1 
 5.000000E-01  5.000000E-01  7.450000E+01  3.962443E+01  1.642748E+07  1.642817E+07  9.988440E-01  1.155989E-03  0.000000E+00  1.024000E+03  1.565819E+02  3.418627E-17  3.066796E-01    1 
 5.000000E-01  5.000000E-01  7.550000E+01  3.958369E+01  1.641744E+07  1.641817E+07  9.987917E-01  1.208273E-03  0.000000E+00  1.024000E+03  1.565177E+02  3.419173E-17  3.069248E-01    1 
 5.000000E-01  5.000000E-01  7.650000E+01  3.954297E+01  1.640741E+07  1.640816E+07  9.987390E-01  1.260992E-03  0.000000E+00  1.024000E+03  1.564535E+02  3.419721E-17  3.071703E-01    1 
 5.000000E-01  5.000000E-01  7.750000E+01  3.950224E+01  1.639737E+07  1.639816E+07  9.986856E-01  1.314389E-03  0.000000E+00  1.024000E+03  1.563893E+02  3.420268E-17  3.074159E-01    1 
 5.000000E-01  5.000000E-01  7.850000E+01  3.946152E+01  1.638733E+07  1.638815E+07  9.986313E-01  1.368698E-03  0.000000E+00  1.024000E+03  1.563250E+02  3.420817E-17  3.076617E-01    1 
 5.000000E-01  5.000000E-01  7.950000E+01  3.942080E+01  1.637730E+07  1.637815E+07  9.985759E-01  1.424127E-03  0.000000E+00  1.024000E+03  1.562607E+02  3.421366E-17  3.079078E-01    1 
 5.000000E-01  5.000000E-01  8.050000E+01  3.938009E+01  1.636726E+07  1.636814E+07  9.985192E-01  1.480824E-03  0.000000E+00  1.024000E+03  1.561964E+02  3.421915E-17  3.081540E-01    1 
 5.000000E-01  5.000000E-01  8.150000E+01  3.933937E+01  1.635722E+07  1.635814E+07  9.984611E-01  1.538877E-03  0.000000E+00  1.024000E+03  1.561321E+02  3.422465E-17  3.084004E-01    1 
 5.000000E-01  5.000000E-01  8.250000E+01  3.929867E+01  1.634719E+07  1.634814E+07  9.984017E-01  1.598336E-03  0.000000E+00  1.024000E+03  1.560678E+02  3.423015E-17  3.086470E-01    1 
 5.000000E-01  5.000000E-01  8.350000E+01  3.925796E+01  1.633715E+07  1.633814E+07  9.983408E-01  1.659231E-03  0.000000E+00  1.024000E+03  1.560034E+02  3.423566E-17  3.088939E-01    1 
 5.000000E-01  5.000000E-01  8.450000E+01  3.921726E+01  1.632711E+07  1.632814E+07  9.982784E-01  1.721583E-03  0.000000E+00  1.024000E+03  1.559390E+02  3.424118E-17  3.091409E-01    1 
 5.000000E-01  5.000000E-01  8.550000E+01  3.917657E+01  1.631707E+07  1.631814E+07  9.982146E-01  1.785400E-03  0.000000E+00  1.024000E+03  1.558746E+02  3.424670E-17  3.093881E-01    1 
 5.000000E-01  5.000000E-01  8.650000E+01  3.913587E+01  1.630704E+07  1.630814E+07  9.981493E-01  1.850670E-03  0.000000E+00  1.024000E+03  1.558102E+02  3.425222E-17  3.096355E-01    1 
 5.000000E-01  5.000000E-01  8.750000E+01  3.909518E+01  1.629700E+07  1.629814E+07  9.980827E-01  1.917339E-03  0.000000E+00  1.024000E+03  1.557457E+02  3.425775E-17  3.098831E-01    1 
 5.000000E-01  5.000000E-01  8.850000E+01  3.905450E+01  1.628696E+07  1.628814E+07  9.980147E-01  1.985300E-03  0.000000E+00  1.024000E+03  1.556812E+02  3.426329E-17  3.101309E-01    1 
 5.000000E-01  5.000000E-01  8.950000E+01  3.901382E+01  1.627692E+07  1.627814E+07  9.979456E-01  2.054383E-03  0.000000E+00  1.024000E+03  1.556167E+02  3.426883E-17  3.103789E-01    1 
 5.000000E-01  5.000000E-01  9.050000E+01  3.897314E+01  1.626688E+07  1.626814E+07  9.978756E-01  2.124356E-03  0.000000E+00  1.024000E+03  1.555522E+02  3.427438E-17  3.106271E-01    1 
 5.000000E-01  5.000000E-01  9.150000E+01  3.893246E+01  1.625685E+07  1.625815E+07  9.978051E-01  2.194949E-03  0.000000E+00  1.024000E+03  1.554877E+02  3.427993E-17  3.108755E-01    1 
 5.000000E-01  5.000000E-01  9.250000E+01  3.889179E+01  1.624681E+07  1.624815E+07  9.977341E-01  2.265899E-03  0.000000E+00  1.024000E+03  1.554231E+02  3.428549E-17  3.111241E-01    1 
 5.000000E-01  5.000000E-01  9.350000E+01  3.885112E+01  1.623677E+07  1.623815E+07  9.976630E-01  2.336999E-03  0.000000E+00  1.024000E+03  1.553585E+02  3.429105E-17  3.113729E-01    1 
 5.000000E-01  5.000000E-01  9.450000E+01  3.881046E+01  1.622673E+07  1.622815E+07  9.975919E-01  2.408149E-03  0.000000E+00  1.024000E+03  1.552938E+02  3.429662E-17  3.116219E-01    1 
 5.000000E-01  5.000000E-01  9.550000E+01  3.876980E+01  1.621669E+07  1.621816E+07  9.975206E-01  2.479386E-03  0.000000E+00  1.024000E+03  1.552292E+02  3.430219E-17  3.118711E-01    1 
 5.000000E-01  5.000000E-01  9.650000E+01  3.872914E+01  1.620666E+07  1.620816E+07  9.974491E-01  2.550880E-03  0.000000E+00  1.024000E+03  1.551645E+02  3.430777E-17  3.121205E-01    1 
 5.000000E-01  5.000000E-01  9.750000E+01  3.868848E+01  1.619662E+07  1.619816E+07  9.973771E-01  2.622897E-03  0.000000E+00  1.024000E+03  1.550998E+02  3.431336E-17  3.123701E-01    1 
 5.000000E-01  5.000000E-01  9.850000E+01  3.864783E+01  1.618658E+07  1.618816E+07  9.973043E-01  2.695737E-03  0.000000E+00  1.024000E+03  1.550350E+02  3.431895E-17  3.126199E-01    1 
 5.000000E-01  5.000000E-01  9.950000E+01  3.860719E+01  1.617654E+07  1.617817E+07  9.972303E-01  2.769666E-03  0.000000E+00  1.024000E+03  1.549703E+02  3.432454E-17  3.128699E-01    1 
 5.000000E-01  5.000000E-01  1.005000E+02  3.856654E+01  1.616650E+07  1.616817E+07  9.971551E-01  2.844852E-03  0.000000E+00  1.024000E+03  1.549055E+02  3.433014E-17  3.131201E-01    1 
 5.000000E-01  5.000000E-01  1.015000E+02  3.852590E+01  1.615646E+07  1.615817E+07  9.970787E-01  2.921330E-03  0.000000E+00  1.024000E+03  1.548407E+02  3.433575E-17  3.133705E-01    1 
 5.000000E-01  5.000000E-01  1.025000E+02  3.848527E+01  1.614642E+07  1.614818E+07  9.970010E-01  2.998981E-03  0.000000E+00  1.024000E+03  1.547759E+02  3.434136E-17  3.136211E-01    1 
 5.000000E-01  5.000000E-01  1.035000E+02  3.844464E+01  1.613639E+07  1.613818E+07  9.969225E-01  3.077538E-03  0.000000E+00  1.024000E+03  1.547110E+02  3.434698E-17  3.138719E-01    1 
 5.000000E-01  5.000000E-01  1.045000E+02  3.840401E+01  1.612635E+07  1.612819E+07  9.968434E-01  3.156609E-03  0.000000E+00  1.024000E+03  1.546461E+02  3.435260E-17  3.141229E-01    1 
 5.000000E-01  5.000000E-01  1.055000E+02  3.836338E+01  1.611631E+07  1.611819E+07  9.967643E-01  3.235710E-03  0.000000E+00  1.024000E+03  1.545812E+02  3.435823E-17  3.143741E-01    1 
 5.000000E-01  5.000000E-01  1.065000E+02  3.832276E+01  1.610627E+07  1.610820E+07  9.966857E-01  3.314313E-03  0.000000E+00  1.024000E+03  1.545163E+02  3.436386E-17  3.146255E-01    1 
 5.000000E-01  5.000000E-01  1.075000E+02  3.828214E+01  1.609623E+07  1.609820E+07  9.966081E-01  3.391887E-03  0.000000E+00  1.024000E+03  1.544513E+02  3.436950E-17  3.148771E-01    1 
 5.000000E-01  5.000000E-01  1.085000E+02  3.824153E+01  1.608619E+07  1.608821E+07  9.965320E-01  3.467954E-03  0.000000E+00  1.024000E+03  1.543863E+02  3.437514E-17  3.151289E-01    1 
 5.000000E-01  5.000000E-01  1.095000E+02  3.820091E+01  1.607615E+07  1.607821E+07  9.964579E-01  3.542126E-03  0.000000E+00  1.024000E+03  1.543212E+02  3.438079E-17  3.153809E-01    1 
 5.000000E-01  5.000000E-01  1.105000E+02  3.816031E+01  1.606611E+07  1.606821E+07  9.963859E-01  3.614132E-03  0.000000E+00  1.024000E+03  1.542561E+02  3.438645E-17  3.156331E-01    1 
 5.000000E-01  5.000000E-01  1.115000E+02  3.811970E+01  1.605607E+07  1.605821E+07  9.963162E-01  3.683842E-03  0.000000E+00  1.024000E+03  1.541910E+02  3.439211E-17  3.158855E-01    1 
 5.000000E-01  5.000000E-01  1.125000E+02  3.807910E+01  1.604603E+07  1.604820E+07  9.962487E-01  3.751254E-03  0.000000E+00  1.024000E+03  1.541258E+02  3.439777E-17  3.161381E-01    1 
 5.000000E-01  5.000000E-01  1.135000E+02  3.803850E+01  1.603599E+07  1.603820E+07  9.961835E-01  3.816489E-03  0.000000E+00  1.024000E+03  1.540606E+02  3.440344E-17  3.163909E-01    1 
 5.000000E-01  5.000000E-01  1.145000E+02  3.799791E+01  1.602595E+07  1.602820E+07  9.961203E-01  3.879750E-03  0.000000E+00  1.024000E+03  1.539954E+02  3.440912E-17  3.166439E-01    1 
 5.000000E-01  5.000000E-01  1.155000E+02  3.795732E+01  1.601591E+07  1.601819E+07  9.960587E-01  3.941297E-03  0.000000E+00  1.024000E+03  1.539301E+02  3.441480E-17  3.168971E-01    1 
 5.000000E-01  5.000000E-01  1.165000E+02  3.791673E+01  1.600587E+07  1.600818E+07  9.959986E-01  4.001408E-03  0.000000E+00  1.024000E+03  1.538648E+02  3.442049E-17  3.171506E-01    1 
 5.000000E-01  5.000000E-01  1.175000E+02  3.787615E+01  1.599583E+07  1.599817E+07  9.959397E-01  4.060348E-03  0.000000E+00  1.024000E+03  1.537994E+02  3.442618E-17  3.174042E-01    1 
 5.000000E-01  5.000000E-01  1.185000E+02  3.783557E+01  1.598579E+07  1.598817E+07  9.958817E-01  4.118347E-03  0.000000E+00  1.024000E+03  1.537341E+02  3.443188E-17  3.176580E-01    1 
 5.000000E-01  5.000000E-01  1.195000E+02  3.779500E+01  1.597575E+07  1.597816E+07  9.958244E-01  4.175591E-03  0.000000E+00  1.024000E+03  1.536686E+02  3.443758E-17  3.179120E-01    1 
 5.000000E-01  5.000000E-01  1.205000E+02  3.775442E+01  1.596571E+07  1.596815E+07  9.957678E-01  4.232214E-03  0.000000E+00  1.024000E+03  1.536032E+02  3.444329E-17  3.181663E-01    1 
 5.000000E-01  5.000000E-01  1.215000E+02  3.771386E+01  1.595567E+07  1.595814E+07  9.957117E-01  4.288306E-03  0.000000E+00  1.024000E+03  1.535377E+02  3.444901E-17  3.184207E-01    1 
 5.000000E-01  5.000000E-01  1.225000E+02  3.767329E+01  1.594563E+07  1.594813E+07  9.956561E-01  4.343917E-03  0.000000E+00  1.024000E+03  1.534722E+02  3.445473E-17  3.186753E-01    1 
 5.000000E-01  5.000000E-01  1.235000E+02  3.763273E+01  1.593559E+07  1.593812E+07  9.956009E-01  4.399071E-03  0.000000E+00  1.024000E+03  1.534067E+02  3.446046E-17  3.189302E-01    1 
 5.000000E-01  5.000000E-01  1.245000E+02  3.759217E+01  1.592555E+07  1.592811E+07  9.955462E-01  4.453776E-03  0.000000E+00  1.024000E+03  1.533411E+02  3.446619E-17  3.191852E-01    1 
 5.000000E-01  5.000000E-01  1.255000E+02  3.755162E+01  1.591551E+07  1.591809E+07  9.954920E-01  4.508031E-03  0.000000E+00  1.024000E+03  1.532755E+02  3.447192E-17  3.194405E-01    1 
 5.000000E-01  5.000000E-01  1.265000E+02  3.751107E+01  1.590547E+07  1.590808E+07  9.954382E-01  4.561836E-03  0.000000E+00  1.024000E+03  1.532099E+02  3.447767E-17  3.196959E-01    1 
 5.000000E-01  5.000000E-01  1.275000E+02  3.747052E+01  1.589543E+07  1.589807E+07  9.953848E-01  4.615196E-03  0.000000E+00  1.024000E+03  1.531442E+02  3.448342E-17  3.199516E-01    1 
 5.000000E-01  5.000000E-01  1.285000E+02  3.742998E+01  1.588539E+07  1.588806E+07  9.953319E-01  4.668123E-03  0.000000E+00  1.024000E+03  1.530785E+02  3.448917E-17  3.202074E-01    1 
 5.000000E-01  5.000000E-01  1.295000E+02  3.738944E+01  1.587535E+07  1.587804E+07  9.952794E-01  4.720636E-03  0.000000E+00  1.024000E+03  1.530128E+02  3.449493E-17  3.204635E-01    1 
 5.000000E-01  5.000000E-01  1.305000E+02  3.734891E+01  1.586531E+07  1.586803E+07  9.952272E-01  4.772763E-03  0.000000E+00  1.024000E+03  1.529470E+02  3.450069E-17  3.207197E-01    1 
 5.000000E-01  5.000000E-01  1.315000E+02  3.730838E+01  1.585527E+07  1.585802E+07  9.951755E-01  4.824541E-03  0.000000E+00  1.024000E+03  1.528812E+02  3.450646E-17  3.209762E-01    1 
 5.000000E-01  5.000000E-01  1.325000E+02  3.726785E+01  1.584522E+07  1.584800E+07  9.951240E-01  4.876010E-03  0.000000E+00  1.024000E+03  1.528154E+02  3.451224E-17  3.212329E-01    1 
 5.000000E-01  5.000000E-01  1.335000E+02  3.722733E+01  1.583518E+07  1.583799E+07  9.950728E-01  4.927215E-03  0.000000E+00  1.024000E+03  1.527496E+02  3.451802E-17  3.214898E-01    1 
 5.000000E-01  5.000000E-01  1.345000E+02  3.718681E+01  1.582514E+07  1.582798E+07  9.950218E-01  4.978203E-03  0.000000E+00  1.024000E+03  1.526837E+02  3.452381E-17  3.217469E-01    1 
 5.000000E-01  5.000000E-01  1.355000E+02  3.714629E+01  1.581510E+07  1.581796E+07  9.949710E-01  5.029020E-03  0.000000E+00  1.024000E+03  1.526178E+02  3.452960E-17  3.220042E-01    1 
 5.000000E-01  5.000000E-01  1.365000E+02  3.710578E+01  1.580506E+07  1.580795E+07  9.949203E-01  5.079715E-03  0.000000E+00  1.024000E+03  1.525518E+02  3.453540E-17  3.222617E-01    1 
 5.000000E-01  5.000000E-01  1.375000E+02  3.706527E+01  1.579502E+07  1.579793E+07  9.948697E-01  5.130333E-03  0.000000E+00  1.024000E+03  1.524859E+02  3.454121E-17  3.225194E-01    1 
 5.000000E-01  5.000000E-01  1.385000E+02  3.702476E+01  1.578498E+07  1.578792E+07  9.948191E-01  5.180917E-03  0.000000E+00  1.024000E+03  1.524199E+02  3.454701E-17  3.227773E-01    1 
 5.000000E-01  5.000000E-01  1.395000E+02  3.698426E+01  1.577493E+07  1.577790E+07  9.947685E-01  5.231510E-03  0.000000E+00  1.024000E+03  1.523539E+02  3.455283E-17  3.230354E-01    1 
 5.000000E-01  5.000000E-01  1.405000E+02  3.694376E+01  1.576489E+07  1.576789E+07  9.947178E-01  5.282151E-03  0.000000E+00  1.024000E+03  1.522878E+02  3.455865E-17  3.232937E-01    1 
 5.000000E-01  5.000000E-01  1.415000E+02  3.690327E+01  1.575485E+07  1.575787E+07  9.946671E-01  5.332876E-03  0.000000E+00  1.024000E+03  1.522217E+02  3.456448E-17  3.235523E-01    1 
 5.000000E-01  5.000000E-01  1.425000E+02  3.686278E+01  1.574481E+07  1.574785E+07  9.946163E-01  5.383721E-03  0.000000E+00  1.024000E+03  1.521556E+02  3.457031E-17  3.238110E-01    1 
 5.000000E-01  5.000000E-01  1.435000E+02  3.682229E+01  1.573477E+07  1.573784E+07  9.945653E-01  5.434719E-03  0.000000E+00  1.024000E+03  1.520895E+02  3.457615E-17  3.240699E-01    1 
 5.000000E-01  5.000000E-01  1.445000E+02  3.678181E+01  1.572472E+07  1.572782E+07  9.945141E-01  5.485903E-03  0.000000E+00  1.024000E+03  1.520233E+02  3.458199E-17  3.243291E-01    1 
 5.000000E-01  5.000000E-01  1.455000E+02  3.674133E+01  1.571468E+07  1.571781E+07  9.944627E-01  5.537302E-03  0.000000E+00  1.024000E+03  1.519571E+02  3.458784E-17  3.245885E-01    1 
 5.000000E-01  5.000000E-01  1.465000E+02  3.670085E+01  1.570464E+07  1.570779E+07  9.944111E-01  5.588948E-03  0.000000E+00  1.024000E+03  1.518909E+02  3.459370E-17  3.248480E-01    1 
 5.000000E-01  5.000000E-01  1.475000E+02  3.666038E+01  1.569460E+07  1.569778E+07  9.943591E-01  5.640870E-03  0.000000E+00  1.024000E+03  1.518246E+02  3.459956E-17  3.251078E-01    1 
 5.000000E-01  5.000000E-01  1.485000E+02  3.661991E+01  1.568455E+07  1.568776E+07  9.943069E-01  5.693098E-03  0.000000E+00  1.024000E+03  1.517583E+02  3.460542E-17  3.253678E-01    1 
 5.000000E-01  5.000000E-01  1.495000E+02  3.657945E+01  1.567451E+07  1.567775E+07  9.942543E-01  5.745663E-03  0.000000E+00  1.024000E+03  1.516920E+02  3.461129E-17  3.256280E-01    1 
 5.000000E-01  5.000000E-01  1.505000E+02  3.653898E+01  1.566447E+07  1.566773E+07  9.942014E-01  5.798596E-03  0.000000E+00  1.024000E+03  1.516257E+02  3.461717E-17  3.258884E-01    1 
 5.000000E-01  5.000000E-01  1.515000E+02  3.649853E+01  1.565443E+07  1.565772E+07  9.941481E-01  5.851931E-03  0.000000E+00  1.024000E+03  1.515593E+02  3.462306E-17  3.261490E-01    1 
 5.000000E-01  5.000000E-01  1.525000E+02  3.645807E+01  1.564438E+07  1.564770E+07  9.940943E-01  5.905702E-03  0.000000E+00  1.024000E+03  1.514929E+02  3.462894E-17  3.264098E-01    1 
 5.000000E-01  5.000000E-01  1.535000E+02  3.641762E+01  1.563434E+07  1.563769E+07  9.940401E-01  5.959948E-03  0.000000E+00  1.024000E+03  1.514265E+02  3.463484E-17  3.266708E-01    1 
 5.000000E-01  5.000000E-01  1.545000E+02  3.637718E+01  1.562430E+07  1.562767E+07  9.939853E-01  6.014709E-03  0.000000E+00  1.024000E+03  1.513601E+02  3.464074E-17  3.269320E-01    1 
 5.000000E-01  5.000000E-01  1.555000E+02  3.633674E+01  1.561425E+07  1.561766E+07  9.939300E-01  6.070029E-03  0.000000E+00  1.024000E+03  1.512936E+02  3.464665E-17  3.271935E-01    1 
 5.000000E-01  5.000000E-01  1.565000E+02  3.629630E+01  1.560421E+07  1.560764E+07  9.938740E-01  6.125953E-03  0.000000E+00  1.024000E+03  1.512271E+02  3.465256E-17  3.274551E-01    1 