TITLE = "  9.11000E+04 [y]"
VARIABLES="X [m]","Y [m]","Z [m]","Temperature [C]","Liquid Pressure [Pa]","Gas Pressure [Pa]","Liquid Saturation","Gas Saturation","Hydrate Saturation","Liquid Density [kg/m^3]","Gas Density [kg/m^3]","Permeability X [m^2]","Porosity","Material ID"
ZONE T="9.11000E+04", STRANDID=1, SOLUTIONTIME=9.11000E+04, I=1, J=1, K=1000, DATAPACKING=POINT
 5.000000E-01  5.000000E-01  5.000000E-01  4.166417E+01  1.675297E+07  1.675709E+07  9.925010E-01  7.499048E-03  0.000000E+00  1.024000E+03  1.583754E+02  3.379583E-17  2.890648E-01    1 
 5.000000E-01  5.000000E-01  1.500000E+00  4.162312E+01  1.674294E+07  1.674709E+07  9.924252E-01  7.574786E-03  0.000000E+00  1.024000E+03  1.583123E+02  3.380093E-17  2.892959E-01    1 
 5.000000E-01  5.000000E-01  2.500000E+00  4.158207E+01  1.673290E+07  1.673709E+07  9.923575E-01  7.642527E-03  0.000000E+00  1.024000E+03  1.582492E+02  3.380603E-17  2.895273E-01    1 
 5.000000E-01  5.000000E-01  3.500000E+00  4.154103E+01  1.672287E+07  1.672709E+07  9.922890E-01  7.710955E-03  0.000000E+00  1.024000E+03  1.581860E+02  3.381113E-17  2.897588E-01    1 
 5.000000E-01  5.000000E-01  4.500000E+00  4.149999E+01  1.671283E+07  1.671708E+07  9.922199E-01  7.780082E-03  0.000000E+00  1.024000E+03  1.581228E+02  3.381624E-17  2.899905E-01    1 
 5.000000E-01  5.000000E-01  5.500000E+00  4.145896E+01  1.670279E+07  1.670708E+07  9.921501E-01  7.849894E-03  0.000000E+00  1.024000E+03  1.580596E+02  3.382135E-17  2.902224E-01    1 
 5.000000E-01  5.000000E-01  6.500000E+00  4.141793E+01  1.669276E+07  1.669708E+07  9.920796E-01  7.920372E-03  0.000000E+00  1.024000E+03  1.579963E+02  3.382647E-17  2.904545E-01    1 
 5.000000E-01  5.000000E-01  7.500000E+00  4.137690E+01  1.668272E+07  1.668708E+07  9.920085E-01  7.991491E-03  0.000000E+00  1.024000E+03  1.579331E+02  3.383160E-17  2.906868E-01    1 
 5.000000E-01  5.000000E-01  8.500000E+00  4.133587E+01  1.667269E+07  1.667708E+07  9.919368E-01  8.063221E-03  0.000000E+00  1.024000E+03  1.578698E+02  3.383673E-17  2.909192E-01    1 
 5.000000E-01  5.000000E-01  9.500000E+00  4.129485E+01  1.666265E+07  1.666708E+07  9.918645E-01  8.135529E-03  0.000000E+00  1.024000E+03  1.578064E+02  3.384186E-17  2.911519E-01    1 
 5.000000E-01  5.000000E-01  1.050000E+01  4.125383E+01  1.665262E+07  1.665707E+07  9.917916E-01  8.208377E-03  0.000000E+00  1.024000E+03  1.577431E+02  3.384700E-17  2.913847E-01    1 
 5.000000E-01  5.000000E-01  1.150000E+01  4.121281E+01  1.664258E+07  1.664707E+07  9.917183E-01  8.281722E-03  0.000000E+00  1.024000E+03  1.576797E+02  3.385214E-17  2.916177E-01    1 
 5.000000E-01  5.000000E-01  1.250000E+01  4.117180E+01  1.663254E+07  1.663707E+07  9.916445E-01  8.355518E-03  0.000000E+00  1.024000E+03  1.576163E+02  3.385729E-17  2.918509E-01    1 
 5.000000E-01  5.000000E-01  1.350000E+01  4.113079E+01  1.662251E+07  1.662707E+07  9.915703E-01  8.429715E-03  0.000000E+00  1.024000E+03  1.575529E+02  3.386244E-17  2.920843E-01    1 
 5.000000E-01  5.000000E-01  1.450000E+01  4.108978E+01  1.661247E+07  1.661707E+07  9.914957E-01  8.504260E-03  0.000000E+00  1.024000E+03  1.574894E+02  3.386760E-17  2.923179E-01    1 
 5.000000E-01  5.000000E-01  1.550000E+01  4.104878E+01  1.660244E+07  1.660707E+07  9.914209E-01  8.579094E-03  0.000000E+00  1.024000E+03  1.574259E+02  3.387276E-17  2.925516E-01    1 
 5.000000E-01  5.000000E-01  1.650000E+01  4.100778E+01  1.659240E+07  1.659707E+07  9.913458E-01  8.654159E-03  0.000000E+00  1.024000E+03  1.573624E+02  3.387793E-17  2.927856E-01    1 
 5.000000E-01  5.000000E-01  1.750000E+01  4.096678E+01  1.658236E+07  1.658707E+07  9.912706E-01  8.729390E-03  0.000000E+00  1.024000E+03  1.572989E+02  3.388310E-17  2.930197E-01    1 
 5.000000E-01  5.000000E-01  1.850000E+01  4.092578E+01  1.657233E+07  1.657707E+07  9.911953E-01  8.804723E-03  0.000000E+00  1.024000E+03  1.572353E+02  3.388828E-17  2.932541E-01    1 
 5.000000E-01  5.000000E-01  1.950000E+01  4.088479E+01  1.656229E+07  1.656707E+07  9.911199E-01  8.880089E-03  0.000000E+00  1.024000E+03  1.571717E+02  3.389346E-17  2.934886E-01    1 
 5.000000E-01  5.000000E-01  2.050000E+01  4.084380E+01  1.655225E+07  1.655706E+07  9.910446E-01  8.955421E-03  0.000000E+00  1.024000E+03  1.571081E+02  3.389865E-17  2.937233E-01    1 
 5.000000E-01  5.000000E-01  2.150000E+01  4.080282E+01  1.654222E+07  1.654706E+07  9.909694E-01  9.030649E-03  0.000000E+00  1.024000E+03  1.570444E+02  3.390384E-17  2.939581E-01    1 
 5.000000E-01  5.000000E-01  2.250000E+01  4.076184E+01  1.653218E+07  1.653706E+07  9.908943E-01  9.105702E-03  0.000000E+00  1.024000E+03  1.569808E+02  3.390904E-17  2.941932E-01    1 
 5.000000E-01  5.000000E-01  2.350000E+01  4.072086E+01  1.652214E+07  1.652706E+07  9.908195E-01  9.180513E-03  0.000000E+00  1.024000E+03  1.569171E+02  3.391424E-17  2.944285E-01    1 
 5.000000E-01  5.000000E-01  2.450000E+01  4.067988E+01  1.651211E+07  1.651706E+07  9.907450E-01  9.255013E-03  0.000000E+00  1.024000E+03  1.568533E+02  3.391945E-17  2.946639E-01    1 
 5.000000E-01  5.000000E-01  2.550000E+01  4.063891E+01  1.650207E+07  1.650705E+07  9.906709E-01  9.329139E-03  0.000000E+00  1.024000E+03  1.567896E+02  3.392466E-17  2.948996E-01    1 
 5.000000E-01  5.000000E-01  2.650000E+01  4.059794E+01  1.649203E+07  1.649705E+07  9.905972E-01  9.402827E-03  0.000000E+00  1.024000E+03  1.567258E+02  3.392988E-17  2.951354E-01    1 
 5.000000E-01  5.000000E-01  2.750000E+01  4.055698E+01  1.648199E+07  1.648705E+07  9.905240E-01  9.476021E-03  0.000000E+00  1.024000E+03  1.566619E+02  3.393510E-17  2.953714E-01    1 
 5.000000E-01  5.000000E-01  2.850000E+01  4.051601E+01  1.647196E+07  1.647704E+07  9.904513E-01  9.548668E-03  0.000000E+00  1.024000E+03  1.565981E+02  3.394033E-17  2.956076E-01    1 
 5.000000E-01  5.000000E-01  2.950000E+01  4.047505E+01  1.646192E+07  1.646704E+07  9.903793E-01  9.620720E-03  0.000000E+00  1.024000E+03  1.565342E+02  3.394556E-17  2.958440E-01    1 
 5.000000E-01  5.000000E-01  3.050000E+01  4.043410E+01  1.645188E+07  1.645703E+07  9.903079E-01  9.692138E-03  0.000000E+00  1.024000E+03  1.564703E+02  3.395080E-17  2.960806E-01    1 
 5.000000E-01  5.000000E-01  3.150000E+01  4.039314E+01  1.644185E+07  1.644703E+07  9.902371E-01  9.762886E-03  0.000000E+00  1.024000E+03  1.564063E+02  3.395604E-17  2.963173E-01    1 
 5.000000E-01  5.000000E-01  3.250000E+01  4.035219E+01  1.643181E+07  1.643702E+07  9.901671E-01  9.832938E-03  0.000000E+00  1.024000E+03  1.563423E+02  3.396129E-17  2.965543E-01    1 
 5.000000E-01  5.000000E-01  3.350000E+01  4.031125E+01  1.642177E+07  1.642702E+07  9.900977E-01  9.902275E-03  0.000000E+00  1.024000E+03  1.562783E+02  3.396654E-17  2.967915E-01    1 
 5.000000E-01  5.000000E-01  3.450000E+01  4.027030E+01  1.641173E+07  1.641701E+07  9.900291E-01  9.970885E-03  0.000000E+00  1.024000E+03  1.562143E+02  3.397180E-17  2.970288E-01    1 
 5.000000E-01  5.000000E-01  3.550000E+01  4.022936E+01  1.640170E+07  1.640700E+07  9.899612E-01  1.003876E-02  0.000000E+00  1.024000E+03  1.561502E+02  3.397706E-17  2.972663E-01    1 
 5.000000E-01  5.000000E-01  3.650000E+01  4.018842E+01  1.639166E+07  1.639699E+07  9.898941E-01  1.010591E-02  0.000000E+00  1.024000E+03  1.560861E+02  3.398233E-17  2.975040E-01    1 
 5.000000E-01  5.000000E-01  3.750000E+01  4.014749E+01  1.638162E+07  1.638699E+07  9.898277E-01  1.017234E-02  0.000000E+00  1.024000E+03  1.560220E+02  3.398760E-17  2.977419E-01    1 
 5.000000E-01  5.000000E-01  3.850000E+01  4.010656E+01  1.637158E+07  1.637698E+07  9.897619E-01  1.023806E-02  0.000000E+00  1.024000E+03  1.559578E+02  3.399288E-17  2.979800E-01    1 
 5.000000E-01  5.000000E-01  3.950000E+01  4.006563E+01  1.636154E+07  1.636697E+07  9.896969E-01  1.030310E-02  0.000000E+00  1.024000E+03  1.558936E+02  3.399816E-17  2.982183E-01    1 
 5.000000E-01  5.000000E-01  4.050000E+01  4.002471E+01  1.635151E+07  1.635696E+07  9.896325E-01  1.036748E-02  0.000000E+00  1.024000E+03  1.558294E+02  3.400345E-17  2.984568E-01    1 
 5.000000E-01  5.000000E-01  4.150000E+01  3.998379E+01  1.634147E+07  1.634695E+07  9.895688E-01  1.043123E-02  0.000000E+00  1.024000E+03  1.557651E+02  3.400874E-17  2.986955E-01    1 
 5.000000E-01  5.000000E-01  4.250000E+01  3.994287E+01  1.633143E+07  1.633694E+07  9.895056E-01  1.049438E-02  0.000000E+00  1.024000E+03  1.557009E+02  3.401404E-17  2.989343E-01    1 
 5.000000E-01  5.000000E-01  4.350000E+01  3.990195E+01  1.632139E+07  1.632693E+07  9.894430E-01  1.055697E-02  0.000000E+00  1.024000E+03  1.556365E+02  3.401934E-17  2.991734E-01    1 
 5.000000E-01  5.000000E-01  4.450000E+01  3.986104E+01  1.631135E+07  1.631692E+07  9.893810E-01  1.061904E-02  0.000000E+00  1.024000E+03  1.555722E+02  3.402465E-17  2.994126E-01    1 
 5.000000E-01  5.000000E-01  4.550000E+01  3.982014E+01  1.630131E+07  1.630690E+07  9.893194E-01  1.068062E-02  0.000000E+00  1.024000E+03  1.555078E+02  3.402996E-17  2.996521E-01    1 
 5.000000E-01  5.000000E-01  4.650000E+01  3.977923E+01  1.629128E+07  1.629689E+07  9.892583E-01  1.074175E-02  0.000000E+00  1.024000E+03  1.554434E+02  3.403528E-17  2.998917E-01    1 
 5.000000E-01  5.000000E-01  4.750000E+01  3.973833E+01  1.628124E+07  1.628688E+07  9.891975E-01  1.080247E-02  0.000000E+00  1.024000E+03  1.553790E+02  3.404060E-17  3.001315E-01    1 
 5.000000E-01  5.000000E-01  4.850000E+01  3.969743E+01  1.627120E+07  1.627687E+07  9.891372E-01  1.086282E-02  0.000000E+00  1.024000E+03  1.553145E+02  3.404593E-17  3.003715E-01    1 
 5.000000E-01  5.000000E-01  4.950000E+01  3.965654E+01  1.626116E+07  1.626686E+07  9.890772E-01  1.092285E-02  0.000000E+00  1.024000E+03  1.552500E+02  3.405126E-17  3.006117E-01    1 
 5.000000E-01  5.000000E-01  5.050000E+01  3.961564E+01  1.625112E+07  1.625684E+07  9.890174E-01  1.098257E-02  0.000000E+00  1.024000E+03  1.551855E+02  3.405660E-17  3.008521E-01    1 
 5.000000E-01  5.000000E-01  5.150000E+01  3.957476E+01  1.624108E+07  1.624683E+07  9.889580E-01  1.104204E-02  0.000000E+00  1.024000E+03  1.551209E+02  3.406195E-17  3.010927E-01    1 
 5.000000E-01  5.000000E-01  5.250000E+01  3.953387E+01  1.623104E+07  1.623682E+07  9.888987E-01  1.110129E-02  0.000000E+00  1.024000E+03  1.550564E+02  3.406729E-17  3.013335E-01    1 
 5.000000E-01  5.000000E-01  5.350000E+01  3.949299E+01  1.622100E+07  1.622680E+07  9.888397E-01  1.116035E-02  0.000000E+00  1.024000E+03  1.549918E+02  3.407265E-17  3.015744E-01    1 
 5.000000E-01  5.000000E-01  5.450000E+01  3.945211E+01  1.621096E+07  1.621679E+07  9.887807E-01  1.121925E-02  0.000000E+00  1.024000E+03  1.549271E+02  3.407801E-17  3.018156E-01    1 
 5.000000E-01  5.000000E-01  5.550000E+01  3.941124E+01  1.620093E+07  1.620677E+07  9.887220E-01  1.127804E-02  0.000000E+00  1.024000E+03  1.548624E+02  3.408337E-17  3.020570E-01    1 
 5.000000E-01  5.000000E-01  5.650000E+01  3.937036E+01  1.619089E+07  1.619676E+07  9.886633E-01  1.133674E-02  0.000000E+00  1.024000E+03  1.547977E+02  3.408874E-17  3.022985E-01    1 
 5.000000E-01  5.000000E-01  5.750000E+01  3.932950E+01  1.618085E+07  1.618675E+07  9.886046E-01  1.139539E-02  0.000000E+00  1.024000E+03  1.547330E+02  3.409411E-17  3.025403E-01    1 
 5.000000E-01  5.000000E-01  5.850000E+01  3.928863E+01  1.617081E+07  1.617673E+07  9.885460E-01  1.145401E-02  0.000000E+00  1.024000E+03  1.546683E+02  3.409949E-17  3.027822E-01    1 
 5.000000E-01  5.000000E-01  5.950000E+01  3.924777E+01  1.616077E+07  1.616672E+07  9.884874E-01  1.151264E-02  0.000000E+00  1.024000E+03  1.546035E+02  3.410488E-17  3.030243E-01    1 
 5.000000E-01  5.000000E-01  6.050000E+01  3.920691E+01  1.615073E+07  1.615670E+07  9.884287E-01  1.157131E-02  0.000000E+00  1.024000E+03  1.545387E+02  3.411027E-17  3.032666E-01    1 
 5.000000E-01  5.000000E-01  6.150000E+01  3.916605E+01  1.614069E+07  1.614669E+07  9.883700E-01  1.163004E-02  0.000000E+00  1.024000E+03  1.544738E+02  3.411566E-17  3.035092E-01    1 
 5.000000E-01  5.000000E-01  6.250000E+01  3.912520E+01  1.613065E+07  1.613667E+07  9.883111E-01  1.168887E-02  0.000000E+00  1.024000E+03  1.544090E+02  3.412106E-17  3.037519E-01    1 
 5.000000E-01  5.000000E-01  6.350000E+01  3.908435E+01  1.612061E+07  1.612666E+07  9.882522E-01  1.174783E-02  0.000000E+00  1.024000E+03  1.543441E+02  3.412647E-17  3.039948E-01    1 
 5.000000E-01  5.000000E-01  6.450000E+01  3.904351E+01  1.611057E+07  1.611664E+07  9.881931E-01  1.180695E-02  0.000000E+00  1.024000E+03  1.542791E+02  3.413188E-17  3.042379E-01    1 
 5.000000E-01  5.000000E-01  6.550000E+01  3.900267E+01  1.610053E+07  1.610663E+07  9.881338E-01  1.186624E-02  0.000000E+00  1.024000E+03  1.542142E+02  3.413729E-17  3.044812E-01    1 
 5.000000E-01  5.000000E-01  6.650000E+01  3.896183E+01  1.609049E+07  1.609661E+07  9.880742E-01  1.192576E-02  0.000000E+00  1.024000E+03  1.541492E+02  3.414271E-17  3.047247E-01    1 
 5.000000E-01  5.000000E-01  6.750000E+01  3.892099E+01  1.608045E+07  1.608660E+07  9.880145E-01  1.198551E-02  0.000000E+00  1.024000E+03  1.540842E+02  3.414814E-17  3.049683E-01    1 
 5.000000E-01  5.000000E-01  6.850000E+01  3.888016E+01  1.607041E+07  1.607658E+07  9.879545E-01  1.204553E-02  0.000000E+00  1.024000E+03  1.540192E+02  3.415357E-17  3.052122E-01    1 
 5.000000E-01  5.000000E-01  6.950000E+01  3.883933E+01  1.606037E+07  1.606657E+07  9.878942E-01  1.210585E-02  0.000000E+00  1.024000E+03  1.539541E+02  3.415901E-17  3.054563E-01    1 
 5.000000E-01  5.000000E-01  7.050000E+01  3.879851E+01  1.605033E+07  1.605655E+07  9.878335E-01  1.216649E-02  0.000000E+00  1.024000E+03  1.538890E+02  3.416445E-17  3.057006E-01    1 
 5.000000E-01  5.000000E-01  7.150000E+01  3.875768E+01  1.604029E+07  1.604654E+07  9.877725E-01  1.222747E-02  0.000000E+00  1.024000E+03  1.538239E+02  3.416989E-17  3.059450E-01    1 
 5.000000E-01  5.000000E-01  7.250000E+01  3.871687E+01  1.603025E+07  1.603652E+07  9.877112E-01  1.228883E-02  0.000000E+00  1.024000E+03  1.537588E+02  3.417535E-17  3.061897E-01    1 
 5.000000E-01  5.000000E-01  7.350000E+01  3.867605E+01  1.602021E+07  1.602651E+07  9.876494E-01  1.235058E-02  0.000000E+00  1.024000E+03  1.536936E+02  3.418080E-17  3.064345E-01    1 
 5.000000E-01  5.000000E-01  7.450000E+01  3.863524E+01  1.601017E+07  1.601649E+07  9.875872E-01  1.241275E-02  0.000000E+00  1.024000E+03  1.536284E+02  3.418627E-17  3.066796E-01    1 
 5.000000E-01  5.000000E-01  7.550000E+01  3.859443E+01  1.600013E+07  1.600647E+07  9.875246E-01  1.247536E-02  0.000000E+00  1.024000E+03  1.535632E+02  3.419173E-17  3.069248E-01    1 
 5.000000E-01  5.000000E-01  7.650000E+01  3.855362E+01  1.599008E+07  1.599646E+07  9.874616E-01  1.253842E-02  0.000000E+00  1.024000E+03  1.534979E+02  3.419721E-17  3.071703E-01    1 
 5.000000E-01  5.000000E-01  7.750000E+01  3.851282E+01  1.598004E+07  1.598644E+07  9.873980E-01  1.260196E-02  0.000000E+00  1.024000E+03  1.534326E+02  3.420268E-17  3.074159E-01    1 
 5.000000E-01  5.000000E-01  7.850000E+01  3.847202E+01  1.597000E+07  1.597643E+07  9.873340E-01  1.266598E-02  0.000000E+00  1.024000E+03  1.533673E+02  3.420817E-17  3.076617E-01    1 
 5.000000E-01  5.000000E-01  7.950000E+01  3.843123E+01  1.595996E+07  1.596641E+07  9.872695E-01  1.273051E-02  0.000000E+00  1.024000E+03  1.533020E+02  3.421366E-17  3.079078E-01    1 
 5.000000E-01  5.000000E-01  8.050000E+01  3.839044E+01  1.594992E+07  1.595640E+07  9.872045E-01  1.279554E-02  0.000000E+00  1.024000E+03  1.532366E+02  3.421915E-17  3.081540E-01    1 
 5.000000E-01  5.000000E-01  8.150000E+01  3.834965E+01  1.593988E+07  1.594639E+07  9.871389E-01  1.286109E-02  0.000000E+00  1.024000E+03  1.531712E+02  3.422465E-17  3.084004E-01    1 
 5.000000E-01  5.000000E-01  8.250000E+01  3.830886E+01  1.592984E+07  1.593637E+07  9.870728E-01  1.292715E-02  0.000000E+00  1.024000E+03  1.531058E+02  3.423015E-17  3.086470E-01    1 
 5.000000E-01  5.000000E-01  8.350000E+01  3.826808E+01  1.591980E+07  1.592636E+07  9.870063E-01  1.299374E-02  0.000000E+00  1.024000E+03  1.530404E+02  3.423566E-17  3.088939E-01    1 
 5.000000E-01  5.000000E-01  8.450000E+01  3.822730E+01  1.590975E+07  1.591634E+07  9.869392E-01  1.306083E-02  0.000000E+00  1.024000E+03  1.529749E+02  3.424118E-17  3.091409E-01    1 
 5.000000E-01  5.000000E-01  8.550000E+01  3.818653E+01  1.589971E+07  1.590633E+07  9.868716E-01  1.312843E-02  0.000000E+00  1.024000E+03  1.529094E+02  3.424670E-17  3.093881E-01    1 
 5.000000E-01  5.000000E-01  8.650000E+01  3.814575E+01  1.588967E+07  1.589631E+07  9.868035E-01  1.319653E-02  0.000000E+00  1.024000E+03  1.528439E+02  3.425222E-17  3.096355E-01    1 
 5.000000E-01  5.000000E-01  8.750000E+01  3.810498E+01  1.587963E+07  1.588630E+07  9.867349E-01  1.326510E-02  0.000000E+00  1.024000E+03  1.527783E+02  3.425775E-17  3.098831E-01    1 
 5.000000E-01  5.000000E-01  8.850000E+01  3.806422E+01  1.586959E+07  1.587628E+07  9.866659E-01  1.333412E-02  0.000000E+00  1.024000E+03  1.527127E+02  3.426329E-17  3.101309E-01    1 
 5.000000E-01  5.000000E-01  8.950000E+01  3.802346E+01  1.585955E+07  1.586627E+07  9.865964E-01  1.340358E-02  0.000000E+00  1.024000E+03  1.526471E+02  3.426883E-17  3.103789E-01    1 
 5.000000E-01  5.000000E-01  9.050000E+01  3.798270E+01  1.584950E+07  1.585625E+07  9.865266E-01  1.347345E-02  0.000000E+00  1.024000E+03  1.525815E+02  3.427438E-17  3.106271E-01    1 
 5.000000E-01  5.000000E-01  9.150000E+01  3.794194E+01  1.583946E+07  1.584624E+07  9.864563E-01  1.354368E-02  0.000000E+00  1.024000E+03  1.525158E+02  3.427993E-17  3.108755E-01    1 
 5.000000E-01  5.000000E-01  9.250000E+01  3.790119E+01  1.582942E+07  1.583622E+07  9.863857E-01  1.361426E-02  0.000000E+00  1.024000E+03  1.524501E+02  3.428549E-17  3.111241E-01    1 
 5.000000E-01  5.000000E-01  9.350000E+01  3.786044E+01  1.581938E+07  1.582621E+07  9.863149E-01  1.368513E-02  0.000000E+00  1.024000E+03  1.523844E+02  3.429105E-17  3.113729E-01    1 
 5.000000E-01  5.000000E-01  9.450000E+01  3.781969E+01  1.580933E+07  1.581619E+07  9.862437E-01  1.375626E-02  0.000000E+00  1.024000E+03  1.523186E+02  3.429662E-17  3.116219E-01    1 
 5.000000E-01  5.000000E-01  9.550000E+01  3.777895E+01  1.579929E+07  1.580618E+07  9.861724E-01  1.382760E-02  0.000000E+00  1.024000E+03  1.522529E+02  3.430219E-17  3.118711E-01    1 
 5.000000E-01  5.000000E-01  9.650000E+01  3.773821E+01  1.578925E+07  1.579616E+07  9.861009E-01  1.389911E-02  0.000000E+00  1.024000E+03  1.521871E+02  3.430777E-17  3.121205E-01    1 
 5.000000E-01  5.000000E-01  9.750000E+01  3.769748E+01  1.577921E+07  1.578615E+07  9.860293E-01  1.397075E-02  0.000000E+00  1.024000E+03  1.521212E+02  3.431336E-17  3.123701E-01    1 
 5.000000E-01  5.000000E-01  9.850000E+01  3.765675E+01  1.576916E+07  1.577613E+07  9.859575E-01  1.404246E-02  0.000000E+00  1.024000E+03  1.520553E+02  3.431895E-17  3.126199E-01    1 
 5.000000E-01  5.000000E-01  9.950000E+01  3.761602E+01  1.575912E+07  1.576612E+07  9.858858E-01  1.411420E-02  0.000000E+00  1.024000E+03  1.519895E+02  3.432454E-17  3.128699E-01    1 
 5.000000E-01  5.000000E-01  1.005000E+02  3.757529E+01  1.574908E+07  1.575610E+07  9.858141E-01  1.418593E-02  0.000000E+00  1.024000E+03  1.519235E+02  3.433014E-17  3.131201E-01    1 
 5.000000E-01  5.000000E-01  1.015000E+02  3.753457E+01  1.573903E+07  1.574609E+07  9.857424E-01  1.425759E-02  0.000000E+00  1.024000E+03  1.518576E+02  3.433575E-17  3.133705E-01    1 
 5.000000E-01  5.000000E-01  1.025000E+02  3.749385E+01  1.572899E+07  1.573607E+07  9.856708E-01  1.432915E-02  0.000000E+00  1.024000E+03  1.517916E+02  3.434136E-17  3.136211E-01    1 
 5.000000E-01  5.000000E-01  1.035000E+02  3.745313E+01  1.571895E+07  1.572606E+07  9.855994E-01  1.440057E-02  0.000000E+00  1.024000E+03  1.517256E+02  3.434698E-17  3.138719E-01    1 
 5.000000E-01  5.000000E-01  1.045000E+02  3.741242E+01  1.570890E+07  1.571604E+07  9.855282E-01  1.447180E-02  0.000000E+00  1.024000E+03  1.516595E+02  3.435260E-17  3.141229E-01    1 
 5.000000E-01  5.000000E-01  1.055000E+02  3.737171E+01  1.569886E+07  1.570602E+07  9.854572E-01  1.454282E-02  0.000000E+00  1.024000E+03  1.515934E+02  3.435823E-17  3.143741E-01    1 
 5.000000E-01  5.000000E-01  1.065000E+02  3.733101E+01  1.568882E+07  1.569600E+07  9.853864E-01  1.461358E-02  0.000000E+00  1.024000E+03  1.515273E+02  3.436386E-17  3.146255E-01    1 
 5.000000E-01  5.000000E-01  1.075000E+02  3.729030E+01  1.567877E+07  1.568599E+07  9.853159E-01  1.468407E-02  0.000000E+00  1.024000E+03  1.514612E+02  3.436950E-17  3.148771E-01    1 
 5.000000E-01  5.000000E-01  1.085000E+02  3.724960E+01  1.566873E+07  1.567597E+07  9.852457E-01  1.475425E-02  0.000000E+00  1.024000E+03  1.513950E+02  3.437514E-17  3.151289E-01    1 
 5.000000E-01  5.000000E-01  1.095000E+02  3.720891E+01  1.565869E+07  1.566595E+07  9.851759E-01  1.482411E-02  0.000000E+00  1.024000E+03  1.513288E+02  3.438079E-17  3.153809E-01    1 
 5.000000E-01  5.000000E-01  1.105000E+02  3.716822E+01  1.564864E+07  1.565593E+07  9.851064E-01  1.489364E-02  0.000000E+00  1.024000E+03  1.512626E+02  3.438645E-17  3.156331E-01    1 
 5.000000E-01  5.000000E-01  1.115000E+02  3.712753E+01  1.563860E+07  1.564592E+07  9.850372E-01  1.496281E-02  0.000000E+00  1.024000E+03  1.511964E+02  3.439211E-17  3.158855E-01    1 
 5.000000E-01  5.000000E-01  1.125000E+02  3.708684E+01  1.562855E+07  1.563590E+07  9.849684E-01  1.503162E-02  0.000000E+00  1.024000E+03  1.511301E+02  3.439777E-17  3.161381E-01    1 
 5.000000E-01  5.000000E-01  1.135000E+02  3.704616E+01  1.561851E+07  1.562588E+07  9.848999E-01  1.510007E-02  0.000000E+00  1.024000E+03  1.510637E+02  3.440344E-17  3.163909E-01    1 
 5.000000E-01  5.000000E-01  1.145000E+02  3.700548E+01  1.560847E+07  1.561586E+07  9.848318E-01  1.516815E-02  0.000000E+00  1.024000E+03  1.509974E+02  3.440912E-17  3.166439E-01    1 
 5.000000E-01  5.000000E-01  1.155000E+02  3.696480E+01  1.559842E+07  1.560584E+07  9.847641E-01  1.523587E-02  0.000000E+00  1.024000E+03  1.509310E+02  3.441480E-17  3.168971E-01    1 
 5.000000E-01  5.000000E-01  1.165000E+02  3.692413E+01  1.558838E+07  1.559582E+07  9.846968E-01  1.530322E-02  0.000000E+00  1.024000E+03  1.508646E+02  3.442049E-17  3.171506E-01    1 
 5.000000E-01  5.000000E-01  1.175000E+02  3.688346E+01  1.557833E+07  1.558580E+07  9.846298E-01  1.537023E-02  0.000000E+00  1.024000E+03  1.507982E+02  3.442618E-17  3.174042E-01    1 
 5.000000E-01  5.000000E-01  1.185000E+02  3.684280E+01  1.556829E+07  1.557578E+07  9.845631E-01  1.543689E-02  0.000000E+00  1.024000E+03  1.507317E+02  3.443188E-17  3.176580E-01    1 
 5.000000E-01  5.000000E-01  1.195000E+02  3.680214E+01  1.555824E+07  1.556576E+07  9.844968E-01  1.550321E-02  0.000000E+00  1.024000E+03  1.506652E+02  3.443758E-17  3.179120E-01    1 
 5.000000E-01  5.000000E-01  1.205000E+02  3.676148E+01  1.554820E+07  1.555574E+07  9.844308E-01  1.556922E-02  0.000000E+00  1.024000E+03  1.505986E+02  3.444329E-17  3.181663E-01    1 
 5.000000E-01  5.000000E-01  1.215000E+02  3.672082E+01  1.553815E+07  1.554571E+07  9.843651E-01  1.563491E-02  0.000000E+00  1.024000E+03  1.505321E+02  3.444901E-17  3.184207E-01    1 
 5.000000E-01  5.000000E-01  1.225000E+02  3.668017E+01  1.552811E+07  1.553569E+07  9.842997E-01  1.570031E-02  0.000000E+00  1.024000E+03  1.504655E+02  3.445473E-17  3.186753E-01    1 
 5.000000E-01  5.000000E-01  1.235000E+02  3.663952E+01  1.551806E+07  1.552567E+07  9.842346E-01  1.576544E-02  0.000000E+00  1.024000E+03  1.503989E+02  3.446046E-17  3.189302E-01    1 
 5.000000E-01  5.000000E-01  1.245000E+02  3.659888E+01  1.550802E+07  1.551565E+07  9.841697E-01  1.583030E-02  0.000000E+00  1.024000E+03  1.503322E+02  3.446619E-17  3.191852E-01    1 
 5.000000E-01  5.000000E-01  1.255000E+02  3.655824E+01  1.549797E+07  1.550563E+07  9.841051E-01  1.589491E-02  0.000000E+00  1.024000E+03  1.502655E+02  3.447192E-17  3.194405E-01    1 
 5.000000E-01  5.000000E-01  1.265000E+02  3.651760E+01  1.548793E+07  1.549560E+07  9.840407E-01  1.595930E-02  0.000000E+00  1.024000E+03  1.501988E+02  3.447767E-17  3.196959E-01    1 
 5.000000E-01  5.000000E-01  1.275000E+02  3.647696E+01  1.547788E+07  1.548558E+07  9.839765E-01  1.602346E-02  0.000000E+00  1.024000E+03  1.501320E+02  3.448342E-17  3.199516E-01    1 
 5.000000E-01  5.000000E-01  1.285000E+02  3.643633E+01  1.546783E+07  1.547556E+07  9.839126E-01  1.608743E-02  0.000000E+00  1.024000E+03  1.500653E+02  3.448917E-17  3.202074E-01    1 
 5.000000E-01  5.000000E-01  1.295000E+02  3.639570E+01  1.545779E+07  1.546553E+07  9.838488E-01  1.615122E-02  0.000000E+00  1.024000E+03  1.499984E+02  3.449493E-17  3.204635E-01    1 
 5.000000E-01  5.000000E-01  1.305000E+02  3.635508E+01  1.544774E+07  1.545551E+07  9.837852E-01  1.621483E-02  0.000000E+00  1.024000E+03  1.499316E+02  3.450069E-17  3.207197E-01    1 
 5.000000E-01  5.000000E-01  1.315000E+02  3.631446E+01  1.543770E+07  1.544548E+07  9.837217E-01  1.627830E-02  0.000000E+00  1.024000E+03  1.498647E+02  3.450646E-17  3.209762E-01    1 
 5.000000E-01  5.000000E-01  1.325000E+02  3.627384E+01  1.542765E+07  1.543546E+07  9.836584E-01  1.634162E-02  0.000000E+00  1.024000E+03  1.497978E+02  3.451224E-17  3.212329E-01    1 
 5.000000E-01  5.000000E-01  1.335000E+02  3.623323E+01  1.541760E+07  1.542544E+07  9.835952E-01  1.640482E-02  0.000000E+00  1.024000E+03  1.497309E+02  3.451802E-17  3.214898E-01    1 
 5.000000E-01  5.000000E-01  1.345000E+02  3.619261E+01  1.540756E+07  1.541541E+07  9.835321E-01  1.646790E-02  0.000000E+00  1.024000E+03  1.496639E+02  3.452381E-17  3.217469E-01    1 
 5.000000E-01  5.000000E-01  1.355000E+02  3.615201E+01  1.539751E+07  1.540539E+07  9.834691E-01  1.653089E-02  0.000000E+00  1.024000E+03  1.495969E+02  3.452960E-17  3.220042E-01    1 
 5.000000E-01  5.000000E-01  1.365000E+02  3.611140E+01  1.538747E+07  1.539536E+07  9.834062E-01  1.659379E-02  0.000000E+00  1.024000E+03  1.495299E+02  3.453540E-17  3.222617E-01    1 
 5.000000E-01  5.000000E-01  1.375000E+02  3.607080E+01  1.537742E+07  1.538534E+07  9.833434E-01  1.665661E-02  0.000000E+00  1.024000E+03  1.494629E+02  3.454121E-17  3.225194E-01    1 
 5.000000E-01  5.000000E-01  1.385000E+02  3.603021E+01  1.536737E+07  1.537531E+07  9.832806E-01  1.671938E-02  0.000000E+00  1.024000E+03  1.493958E+02  3.454701E-17  3.227773E-01    1 
 5.000000E-01  5.000000E-01  1.395000E+02  3.598961E+01  1.535733E+07  1.536529E+07  9.832179E-01  1.678209E-02  0.000000E+00  1.024000E+03  1.493287E+02  3.455283E-17  3.230354E-01    1 
 5.000000E-01  5.000000E-01  1.405000E+02  3.594902E+01  1.534728E+07  1.535526E+07  9.831552E-01  1.684476E-02  0.000000E+00  1.024000E+03  1.492615E+02  3.455865E-17  3.232937E-01    1 
 5.000000E-01  5.000000E-01  1.415000E+02  3.590844E+01  1.533723E+07  1.534523E+07  9.830926E-01  1.690739E-02  0.000000E+00  1.024000E+03  1.491944E+02  3.456448E-17  3.235523E-01    1 
 5.000000E-01  5.000000E-01  1.425000E+02  3.586785E+01  1.532718E+07  1.533521E+07  9.830300E-01  1.697001E-02  0.000000E+00  1.024000E+03  1.491272E+02  3.457031E-17  3.238110E-01    1 
 5.000000E-01  5.000000E-01  1.435000E+02  3.582727E+01  1.531714E+07  1.532518E+07  9.829674E-01  1.703261E-02  0.000000E+00  1.024000E+03  1.490599E+02  3.457615E-17  3.240699E-01    1 
 5.000000E-01  5.000000E-01  1.445000E+02  3.578670E+01  1.530709E+07  1.531516E+07  9.829048E-01  1.709520E-02  0.000000E+00  1.024000E+03  1.489927E+02  3.458199E-17  3.243291E-01    1 
 5.000000E-01  5.000000E-01  1.455000E+02  3.574612E+01  1.529704E+07  1.530513E+07  9.828422E-01  1.715780E-02  0.000000E+00  1.024000E+03  1.489254E+02  3.458784E-17  3.245885E-01    1 
 5.000000E-01  5.000000E-01  1.465000E+02  3.570555E+01  1.528699E+07  1.529510E+07  9.827796E-01  1.722041E-02  0.000000E+00  1.024000E+03  1.488580E+02  3.459370E-17  3.248480E-01    1 
 5.000000E-01  5.000000E-01  1.475000E+02  3.566499E+01  1.527695E+07  1.528508E+07  9.827170E-01  1.728303E-02  0.000000E+00  1.024000E+03  1.487907E+02  3.459956E-17  3.251078E-01    1 
 5.000000E-01  5.000000E-01  1.485000E+02  3.562443E+01  1.526690E+07  1.527505E+07  9.826543E-01  1.734568E-02  0.000000E+00  1.024000E+03  1.487233E+02  3.460542E-17  3.253678E-01    1 
 5.000000E-01  5.000000E-01  1.495000E+02  3.558387E+01  1.525685E+07  1.526502E+07  9.825916E-01  1.740836E-02  0.000000E+00  1.024000E+03  1.486559E+02  3.461129E-17  3.256280E-01    1 
 5.000000E-01  5.000000E-01  1.505000E+02  3.554331E+01  1.524680E+07  1.525499E+07  9.825289E-01  1.747107E-02  0.000000E+00  1.024000E+03  1.485884E+02  3.461717E-17  3.258884E-01    1 
 5.000000E-01  5.000000E-01  1.515000E+02  3.550276E+01  1.523675E+07  1.524497E+07  9.824662E-01  1.753382E-02  0.000000E+00  1.024000E+03  1.485210E+02  3.462306E-17  3.261490E-01    1 
 5.000000E-01  5.000000E-01  1.525000E+02  3.546221E+01  1.522671E+07  1.523494E+07  9.824034E-01  1.759661E-02  0.000000E+00  1.024000E+03  1.484535E+02  3.462894E-17  3.264098E-01    1 
 5.000000E-01  5.000000E-01  1.535000E+02  3.542166E+01  1.521666E+07  1.522491E+07  9.823405E-01  1.765945E-02  0.000000E+00  1.024000E+03  1.483859E+02  3.463484E-17  3.266708E-01    1 
 5.000000E-01  5.000000E-01  1.545000E+02  3.538112E+01  1.520661E+07  1.521488E+07  9.822777E-01  1.772235E-02  0.000000E+00  1.024000E+03  1.483183E+02  3.464074E-17  3.269320E-01    1 
 5.000000E-01  5.000000E-01  1.555000E+02  3.534059E+01  1.519656E+07  1.520485E+07  9.822147E-01  1.778529E-02  0.000000E+00  1.024000E+03  1.482508E+02  3.464665E-17  3.271935E-01    1 
 5.000000E-01  5.000000E-01  1.565000E+02  3.530005E+01  1.518651E+07  1.519483E+07  9.821517E-01  1.784830E-02  0.000000E+00  1.024000E+03  1.481831E+02  3.465256E-17  3.274551E-01    1 