TITLE = "  1.08100E+05 [y]"
VARIABLES="X [m]","Y [m]","Z [m]","Temperature [C]","Liquid Pressure [Pa]","Gas Pressure [Pa]","Liquid Saturation","Gas Saturation","Hydrate Saturation","Liquid Density [kg/m^3]","Gas Density [kg/m^3]","Permeability X [m^2]","Porosity","Material ID"
ZONE T="1.08100E+05", STRANDID=1, SOLUTIONTIME=1.08100E+05, I=1, J=1, K=1000, DATAPACKING=POINT
 5.000000E-01  5.000000E-01  5.000000E-01  4.128207E+01  1.715764E+07  1.716336E+07  9.890093E-01  1.099071E-02  0.000000E+00  1.024000E+03  1.618122E+02  3.379583E-17  2.890648E-01    1 
 5.000000E-01  5.000000E-01  1.500000E+00  4.124100E+01  1.714760E+07  1.715336E+07  9.889380E-01  1.106201E-02  0.000000E+00  1.024000E+03  1.617499E+02  3.380093E-17  2.892959E-01    1 
 5.000000E-01  5.000000E-01  2.500000E+00  4.119993E+01  1.713757E+07  1.714335E+07  9.888736E-01  1.112643E-02  0.000000E+00  1.024000E+03  1.616876E+02  3.380603E-17  2.895273E-01    1 
 5.000000E-01  5.000000E-01  3.500000E+00  4.115887E+01  1.712753E+07  1.713334E+07  9.888097E-01  1.119031E-02  0.000000E+00  1.024000E+03  1.616252E+02  3.381113E-17  2.897588E-01    1 
 5.000000E-01  5.000000E-01  4.500000E+00  4.111782E+01  1.711750E+07  1.712334E+07  9.887463E-01  1.125367E-02  0.000000E+00  1.024000E+03  1.615628E+02  3.381624E-17  2.899905E-01    1 
 5.000000E-01  5.000000E-01  5.500000E+00  4.107676E+01  1.710746E+07  1.711333E+07  9.886835E-01  1.131652E-02  0.000000E+00  1.024000E+03  1.615004E+02  3.382135E-17  2.902224E-01    1 
 5.000000E-01  5.000000E-01  6.500000E+00  4.103571E+01  1.709743E+07  1.710332E+07  9.886211E-01  1.137890E-02  0.000000E+00  1.024000E+03  1.614379E+02  3.382647E-17  2.904545E-01    1 
 5.000000E-01  5.000000E-01  7.500000E+00  4.099466E+01  1.708739E+07  1.709331E+07  9.885592E-01  1.144082E-02  0.000000E+00  1.024000E+03  1.613754E+02  3.383160E-17  2.906868E-01    1 
 5.000000E-01  5.000000E-01  8.500000E+00  4.095362E+01  1.707736E+07  1.708330E+07  9.884977E-01  1.150230E-02  0.000000E+00  1.024000E+03  1.613129E+02  3.383673E-17  2.909192E-01    1 
 5.000000E-01  5.000000E-01  9.500000E+00  4.091257E+01  1.706732E+07  1.707329E+07  9.884366E-01  1.156337E-02  0.000000E+00  1.024000E+03  1.612504E+02  3.384186E-17  2.911519E-01    1 
 5.000000E-01  5.000000E-01  1.050000E+01  4.087154E+01  1.705729E+07  1.706328E+07  9.883759E-01  1.162405E-02  0.000000E+00  1.024000E+03  1.611878E+02  3.384700E-17  2.913847E-01    1 
 5.000000E-01  5.000000E-01  1.150000E+01  4.083050E+01  1.704725E+07  1.705327E+07  9.883156E-01  1.168439E-02  0.000000E+00  1.024000E+03  1.611252E+02  3.385214E-17  2.916177E-01    1 
 5.000000E-01  5.000000E-01  1.250000E+01  4.078947E+01  1.703722E+07  1.704326E+07  9.882556E-01  1.174440E-02  0.000000E+00  1.024000E+03  1.610626E+02  3.385729E-17  2.918509E-01    1 
 5.000000E-01  5.000000E-01  1.350000E+01  4.074844E+01  1.702718E+07  1.703325E+07  9.881959E-01  1.180411E-02  0.000000E+00  1.024000E+03  1.609999E+02  3.386244E-17  2.920843E-01    1 
 5.000000E-01  5.000000E-01  1.450000E+01  4.070741E+01  1.701715E+07  1.702324E+07  9.881364E-01  1.186356E-02  0.000000E+00  1.024000E+03  1.609372E+02  3.386760E-17  2.923179E-01    1 
 5.000000E-01  5.000000E-01  1.550000E+01  4.066639E+01  1.700711E+07  1.701323E+07  9.880772E-01  1.192277E-02  0.000000E+00  1.024000E+03  1.608745E+02  3.387276E-17  2.925516E-01    1 
 5.000000E-01  5.000000E-01  1.650000E+01  4.062537E+01  1.699708E+07  1.700322E+07  9.880182E-01  1.198178E-02  0.000000E+00  1.024000E+03  1.608118E+02  3.387793E-17  2.927856E-01    1 
 5.000000E-01  5.000000E-01  1.750000E+01  4.058436E+01  1.698704E+07  1.699321E+07  9.879594E-01  1.204061E-02  0.000000E+00  1.024000E+03  1.607490E+02  3.388310E-17  2.930197E-01    1 
 5.000000E-01  5.000000E-01  1.850000E+01  4.054335E+01  1.697701E+07  1.698320E+07  9.879007E-01  1.209929E-02  0.000000E+00  1.024000E+03  1.606862E+02  3.388828E-17  2.932541E-01    1 
 5.000000E-01  5.000000E-01  1.950000E+01  4.050234E+01  1.696697E+07  1.697319E+07  9.878421E-01  1.215786E-02  0.000000E+00  1.024000E+03  1.606234E+02  3.389346E-17  2.934886E-01    1 
 5.000000E-01  5.000000E-01  2.050000E+01  4.046133E+01  1.695694E+07  1.696318E+07  9.877837E-01  1.221634E-02  0.000000E+00  1.024000E+03  1.605606E+02  3.389865E-17  2.937233E-01    1 
 5.000000E-01  5.000000E-01  2.150000E+01  4.042033E+01  1.694690E+07  1.695317E+07  9.877252E-01  1.227477E-02  0.000000E+00  1.024000E+03  1.604977E+02  3.390384E-17  2.939581E-01    1 
 5.000000E-01  5.000000E-01  2.250000E+01  4.037933E+01  1.693687E+07  1.694316E+07  9.876668E-01  1.233316E-02  0.000000E+00  1.024000E+03  1.604348E+02  3.390904E-17  2.941932E-01    1 
 5.000000E-01  5.000000E-01  2.350000E+01  4.033834E+01  1.692683E+07  1.693315E+07  9.876084E-01  1.239155E-02  0.000000E+00  1.024000E+03  1.603719E+02  3.391424E-17  2.944285E-01    1 
 5.000000E-01  5.000000E-01  2.450000E+01  4.029734E+01  1.691680E+07  1.692314E+07  9.875500E-01  1.244997E-02  0.000000E+00  1.024000E+03  1.603089E+02  3.391945E-17  2.946639E-01    1 
 5.000000E-01  5.000000E-01  2.550000E+01  4.025636E+01  1.690676E+07  1.691313E+07  9.874916E-01  1.250844E-02  0.000000E+00  1.024000E+03  1.602459E+02  3.392466E-17  2.948996E-01    1 
 5.000000E-01  5.000000E-01  2.650000E+01  4.021537E+01  1.689673E+07  1.690311E+07  9.874330E-01  1.256699E-02  0.000000E+00  1.024000E+03  1.601829E+02  3.392988E-17  2.951354E-01    1 
 5.000000E-01  5.000000E-01  2.750000E+01  4.017439E+01  1.688669E+07  1.689310E+07  9.873744E-01  1.262564E-02  0.000000E+00  1.024000E+03  1.601199E+02  3.393510E-17  2.953714E-01    1 
 5.000000E-01  5.000000E-01  2.850000E+01  4.013341E+01  1.687666E+07  1.688309E+07  9.873156E-01  1.268443E-02  0.000000E+00  1.024000E+03  1.600568E+02  3.394033E-17  2.956076E-01    1 
 5.000000E-01  5.000000E-01  2.950000E+01  4.009244E+01  1.686662E+07  1.687308E+07  9.872566E-01  1.274336E-02  0.000000E+00  1.024000E+03  1.599937E+02  3.394556E-17  2.958440E-01    1 
 5.000000E-01  5.000000E-01  3.050000E+01  4.005146E+01  1.685659E+07  1.686307E+07  9.871975E-01  1.280248E-02  0.000000E+00  1.024000E+03  1.599306E+02  3.395080E-17  2.960806E-01    1 
 5.000000E-01  5.000000E-01  3.150000E+01  4.001049E+01  1.684655E+07  1.685306E+07  9.871382E-01  1.286180E-02  0.000000E+00  1.024000E+03  1.598675E+02  3.395604E-17  2.963173E-01    1 
 5.000000E-01  5.000000E-01  3.250000E+01  3.996953E+01  1.683652E+07  1.684305E+07  9.870787E-01  1.292135E-02  0.000000E+00  1.024000E+03  1.598043E+02  3.396129E-17  2.965543E-01    1 
 5.000000E-01  5.000000E-01  3.350000E+01  3.992857E+01  1.682648E+07  1.683304E+07  9.870189E-01  1.298114E-02  0.000000E+00  1.024000E+03  1.597411E+02  3.396654E-17  2.967915E-01    1 
 5.000000E-01  5.000000E-01  3.450000E+01  3.988761E+01  1.681645E+07  1.682303E+07  9.869588E-01  1.304120E-02  0.000000E+00  1.024000E+03  1.596779E+02  3.397180E-17  2.970288E-01    1 
 5.000000E-01  5.000000E-01  3.550000E+01  3.984665E+01  1.680641E+07  1.681302E+07  9.868985E-01  1.310155E-02  0.000000E+00  1.024000E+03  1.596147E+02  3.397706E-17  2.972663E-01    1 
 5.000000E-01  5.000000E-01  3.650000E+01  3.980570E+01  1.679638E+07  1.680301E+07  9.868378E-01  1.316221E-02  0.000000E+00  1.024000E+03  1.595514E+02  3.398233E-17  2.975040E-01    1 
 5.000000E-01  5.000000E-01  3.750000E+01  3.976475E+01  1.678635E+07  1.679300E+07  9.867768E-01  1.322319E-02  0.000000E+00  1.024000E+03  1.594881E+02  3.398760E-17  2.977419E-01    1 
 5.000000E-01  5.000000E-01  3.850000E+01  3.972381E+01  1.677631E+07  1.678299E+07  9.867155E-01  1.328452E-02  0.000000E+00  1.024000E+03  1.594248E+02  3.399288E-17  2.979800E-01    1 
 5.000000E-01  5.000000E-01  3.950000E+01  3.968287E+01  1.676628E+07  1.677298E+07  9.866538E-01  1.334621E-02  0.000000E+00  1.024000E+03  1.593614E+02  3.399816E-17  2.982183E-01    1 
 5.000000E-01  5.000000E-01  4.050000E+01  3.964193E+01  1.675624E+07  1.676297E+07  9.865917E-01  1.340826E-02  0.000000E+00  1.024000E+03  1.592981E+02  3.400345E-17  2.984568E-01    1 
 5.000000E-01  5.000000E-01  4.150000E+01  3.960099E+01  1.674621E+07  1.675296E+07  9.865293E-01  1.347071E-02  0.000000E+00  1.024000E+03  1.592347E+02  3.400874E-17  2.986955E-01    1 
 5.000000E-01  5.000000E-01  4.250000E+01  3.956006E+01  1.673617E+07  1.674295E+07  9.864665E-01  1.353354E-02  0.000000E+00  1.024000E+03  1.591712E+02  3.401404E-17  2.989343E-01    1 
 5.000000E-01  5.000000E-01  4.350000E+01  3.951913E+01  1.672614E+07  1.673294E+07  9.864032E-01  1.359678E-02  0.000000E+00  1.024000E+03  1.591078E+02  3.401934E-17  2.991734E-01    1 
 5.000000E-01  5.000000E-01  4.450000E+01  3.947821E+01  1.671610E+07  1.672293E+07  9.863396E-01  1.366043E-02  0.000000E+00  1.024000E+03  1.590443E+02  3.402465E-17  2.994126E-01    1 
 5.000000E-01  5.000000E-01  4.550000E+01  3.943729E+01  1.670607E+07  1.671292E+07  9.862755E-01  1.372450E-02  0.000000E+00  1.024000E+03  1.589808E+02  3.402996E-17  2.996521E-01    1 
 5.000000E-01  5.000000E-01  4.650000E+01  3.939637E+01  1.669603E+07  1.670291E+07  9.862110E-01  1.378898E-02  0.000000E+00  1.024000E+03  1.589173E+02  3.403528E-17  2.998917E-01    1 
 5.000000E-01  5.000000E-01  4.750000E+01  3.935546E+01  1.668600E+07  1.669290E+07  9.861461E-01  1.385387E-02  0.000000E+00  1.024000E+03  1.588537E+02  3.404060E-17  3.001315E-01    1 
 5.000000E-01  5.000000E-01  4.850000E+01  3.931454E+01  1.667596E+07  1.668289E+07  9.860808E-01  1.391917E-02  0.000000E+00  1.024000E+03  1.587902E+02  3.404593E-17  3.003715E-01    1 
 5.000000E-01  5.000000E-01  4.950000E+01  3.927364E+01  1.666593E+07  1.667288E+07  9.860151E-01  1.398488E-02  0.000000E+00  1.024000E+03  1.587265E+02  3.405126E-17  3.006117E-01    1 
 5.000000E-01  5.000000E-01  5.050000E+01  3.923273E+01  1.665590E+07  1.666287E+07  9.859490E-01  1.405099E-02  0.000000E+00  1.024000E+03  1.586629E+02  3.405660E-17  3.008521E-01    1 
 5.000000E-01  5.000000E-01  5.150000E+01  3.919183E+01  1.664586E+07  1.665286E+07  9.858825E-01  1.411749E-02  0.000000E+00  1.024000E+03  1.585993E+02  3.406195E-17  3.010927E-01    1 
 5.000000E-01  5.000000E-01  5.250000E+01  3.915093E+01  1.663583E+07  1.664285E+07  9.858156E-01  1.418435E-02  0.000000E+00  1.024000E+03  1.585356E+02  3.406729E-17  3.013335E-01    1 
 5.000000E-01  5.000000E-01  5.350000E+01  3.911004E+01  1.662579E+07  1.663284E+07  9.857484E-01  1.425158E-02  0.000000E+00  1.024000E+03  1.584719E+02  3.407265E-17  3.015744E-01    1 
 5.000000E-01  5.000000E-01  5.450000E+01  3.906915E+01  1.661576E+07  1.662283E+07  9.856809E-01  1.431914E-02  0.000000E+00  1.024000E+03  1.584081E+02  3.407801E-17  3.018156E-01    1 
 5.000000E-01  5.000000E-01  5.550000E+01  3.902826E+01  1.660572E+07  1.661283E+07  9.856130E-01  1.438702E-02  0.000000E+00  1.024000E+03  1.583444E+02  3.408337E-17  3.020570E-01    1 
 5.000000E-01  5.000000E-01  5.650000E+01  3.898737E+01  1.659569E+07  1.660282E+07  9.855448E-01  1.445519E-02  0.000000E+00  1.024000E+03  1.582806E+02  3.408874E-17  3.022985E-01    1 
 5.000000E-01  5.000000E-01  5.750000E+01  3.894649E+01  1.658565E+07  1.659281E+07  9.854764E-01  1.452362E-02  0.000000E+00  1.024000E+03  1.582168E+02  3.409411E-17  3.025403E-01    1 
 5.000000E-01  5.000000E-01  5.850000E+01  3.890562E+01  1.657562E+07  1.658280E+07  9.854077E-01  1.459230E-02  0.000000E+00  1.024000E+03  1.581529E+02  3.409949E-17  3.027822E-01    1 
 5.000000E-01  5.000000E-01  5.950000E+01  3.886474E+01  1.656559E+07  1.657279E+07  9.853388E-01  1.466119E-02  0.000000E+00  1.024000E+03  1.580890E+02  3.410488E-17  3.030243E-01    1 
 5.000000E-01  5.000000E-01  6.050000E+01  3.882387E+01  1.655555E+07  1.656278E+07  9.852697E-01  1.473026E-02  0.000000E+00  1.024000E+03  1.580251E+02  3.411027E-17  3.032666E-01    1 
 5.000000E-01  5.000000E-01  6.150000E+01  3.878300E+01  1.654552E+07  1.655277E+07  9.852005E-01  1.479949E-02  0.000000E+00  1.024000E+03  1.579612E+02  3.411566E-17  3.035092E-01    1 
 5.000000E-01  5.000000E-01  6.250000E+01  3.874214E+01  1.653548E+07  1.654277E+07  9.851312E-01  1.486882E-02  0.000000E+00  1.024000E+03  1.578973E+02  3.412106E-17  3.037519E-01    1 
 5.000000E-01  5.000000E-01  6.350000E+01  3.870128E+01  1.652545E+07  1.653276E+07  9.850618E-01  1.493825E-02  0.000000E+00  1.024000E+03  1.578333E+02  3.412647E-17  3.039948E-01    1 
 5.000000E-01  5.000000E-01  6.450000E+01  3.866042E+01  1.651541E+07  1.652275E+07  9.849923E-01  1.500772E-02  0.000000E+00  1.024000E+03  1.577693E+02  3.413188E-17  3.042379E-01    1 
 5.000000E-01  5.000000E-01  6.550000E+01  3.861957E+01  1.650538E+07  1.651274E+07  9.849228E-01  1.507721E-02  0.000000E+00  1.024000E+03  1.577053E+02  3.413729E-17  3.044812E-01    1 
 5.000000E-01  5.000000E-01  6.650000E+01  3.857872E+01  1.649535E+07  1.650273E+07  9.848533E-01  1.514670E-02  0.000000E+00  1.024000E+03  1.576412E+02  3.414271E-17  3.047247E-01    1 
 5.000000E-01  5.000000E-01  6.750000E+01  3.853787E+01  1.648531E+07  1.649272E+07  9.847839E-01  1.521613E-02  0.000000E+00  1.024000E+03  1.575771E+02  3.414814E-17  3.049683E-01    1 
 5.000000E-01  5.000000E-01  6.850000E+01  3.849703E+01  1.647528E+07  1.648271E+07  9.847145E-01  1.528549E-02  0.000000E+00  1.024000E+03  1.575130E+02  3.415357E-17  3.052122E-01    1 
 5.000000E-01  5.000000E-01  6.950000E+01  3.845619E+01  1.646524E+07  1.647270E+07  9.846452E-01  1.535475E-02  0.000000E+00  1.024000E+03  1.574488E+02  3.415901E-17  3.054563E-01    1 
 5.000000E-01  5.000000E-01  7.050000E+01  3.841535E+01  1.645521E+07  1.646269E+07  9.845761E-01  1.542388E-02  0.000000E+00  1.024000E+03  1.573847E+02  3.416445E-17  3.057006E-01    1 
 5.000000E-01  5.000000E-01  7.150000E+01  3.837452E+01  1.644518E+07  1.645269E+07  9.845071E-01  1.549285E-02  0.000000E+00  1.024000E+03  1.573205E+02  3.416989E-17  3.059450E-01    1 
 5.000000E-01  5.000000E-01  7.250000E+01  3.833369E+01  1.643514E+07  1.644268E+07  9.844384E-01  1.556164E-02  0.000000E+00  1.024000E+03  1.572562E+02  3.417535E-17  3.061897E-01    1 
 5.000000E-01  5.000000E-01  7.350000E+01  3.829286E+01  1.642511E+07  1.643267E+07  9.843698E-01  1.563024E-02  0.000000E+00  1.024000E+03  1.571920E+02  3.418080E-17  3.064345E-01    1 
 5.000000E-01  5.000000E-01  7.450000E+01  3.825204E+01  1.641507E+07  1.642266E+07  9.843014E-01  1.569861E-02  0.000000E+00  1.024000E+03  1.571277E+02  3.418627E-17  3.066796E-01    1 
 5.000000E-01  5.000000E-01  7.550000E+01  3.821122E+01  1.640504E+07  1.641265E+07  9.842333E-01  1.576675E-02  0.000000E+00  1.024000E+03  1.570634E+02  3.419173E-17  3.069248E-01    1 
 5.000000E-01  5.000000E-01  7.650000E+01  3.817040E+01  1.639501E+07  1.640264E+07  9.841654E-01  1.583463E-02  0.000000E+00  1.024000E+03  1.569990E+02  3.419721E-17  3.071703E-01    1 
 5.000000E-01  5.000000E-01  7.750000E+01  3.812959E+01  1.638497E+07  1.639263E+07  9.840977E-01  1.590226E-02  0.000000E+00  1.024000E+03  1.569347E+02  3.420268E-17  3.074159E-01    1 
 5.000000E-01  5.000000E-01  7.850000E+01  3.808878E+01  1.637494E+07  1.638262E+07  9.840304E-01  1.596962E-02  0.000000E+00  1.024000E+03  1.568703E+02  3.420817E-17  3.076617E-01    1 
 5.000000E-01  5.000000E-01  7.950000E+01  3.804798E+01  1.636490E+07  1.637261E+07  9.839633E-01  1.603670E-02  0.000000E+00  1.024000E+03  1.568058E+02  3.421366E-17  3.079078E-01    1 
 5.000000E-01  5.000000E-01  8.050000E+01  3.800717E+01  1.635487E+07  1.636260E+07  9.838965E-01  1.610350E-02  0.000000E+00  1.024000E+03  1.567414E+02  3.421915E-17  3.081540E-01    1 
 5.000000E-01  5.000000E-01  8.150000E+01  3.796637E+01  1.634484E+07  1.635259E+07  9.838300E-01  1.617002E-02  0.000000E+00  1.024000E+03  1.566769E+02  3.422465E-17  3.084004E-01    1 
 5.000000E-01  5.000000E-01  8.250000E+01  3.792558E+01  1.633480E+07  1.634258E+07  9.837637E-01  1.623625E-02  0.000000E+00  1.024000E+03  1.566124E+02  3.423015E-17  3.086470E-01    1 
 5.000000E-01  5.000000E-01  8.350000E+01  3.788479E+01  1.632477E+07  1.633256E+07  9.836978E-01  1.630221E-02  0.000000E+00  1.024000E+03  1.565478E+02  3.423566E-17  3.088939E-01    1 
 5.000000E-01  5.000000E-01  8.450000E+01  3.784400E+01  1.631473E+07  1.632255E+07  9.836321E-01  1.636788E-02  0.000000E+00  1.024000E+03  1.564833E+02  3.424118E-17  3.091409E-01    1 
 5.000000E-01  5.000000E-01  8.550000E+01  3.780321E+01  1.630470E+07  1.631254E+07  9.835667E-01  1.643329E-02  0.000000E+00  1.024000E+03  1.564187E+02  3.424670E-17  3.093881E-01    1 
 5.000000E-01  5.000000E-01  8.650000E+01  3.776243E+01  1.629467E+07  1.630253E+07  9.835016E-01  1.649843E-02  0.000000E+00  1.024000E+03  1.563541E+02  3.425222E-17  3.096355E-01    1 
 5.000000E-01  5.000000E-01  8.750000E+01  3.772166E+01  1.628463E+07  1.629252E+07  9.834367E-01  1.656331E-02  0.000000E+00  1.024000E+03  1.562894E+02  3.425775E-17  3.098831E-01    1 
 5.000000E-01  5.000000E-01  8.850000E+01  3.768088E+01  1.627460E+07  1.628251E+07  9.833721E-01  1.662795E-02  0.000000E+00  1.024000E+03  1.562247E+02  3.426329E-17  3.101309E-01    1 
 5.000000E-01  5.000000E-01  8.950000E+01  3.764011E+01  1.626457E+07  1.627250E+07  9.833077E-01  1.669234E-02  0.000000E+00  1.024000E+03  1.561600E+02  3.426883E-17  3.103789E-01    1 
 5.000000E-01  5.000000E-01  9.050000E+01  3.759934E+01  1.625453E+07  1.626248E+07  9.832435E-01  1.675651E-02  0.000000E+00  1.024000E+03  1.560953E+02  3.427438E-17  3.106271E-01    1 
 5.000000E-01  5.000000E-01  9.150000E+01  3.755858E+01  1.624450E+07  1.625247E+07  9.831795E-01  1.682047E-02  0.000000E+00  1.024000E+03  1.560305E+02  3.427993E-17  3.108755E-01    1 
 5.000000E-01  5.000000E-01  9.250000E+01  3.751782E+01  1.623446E+07  1.624246E+07  9.831158E-01  1.688421E-02  0.000000E+00  1.024000E+03  1.559657E+02  3.428549E-17  3.111241E-01    1 
 5.000000E-01  5.000000E-01  9.350000E+01  3.747706E+01  1.622443E+07  1.623245E+07  9.830522E-01  1.694777E-02  0.000000E+00  1.024000E+03  1.559009E+02  3.429105E-17  3.113729E-01    1 
 5.000000E-01  5.000000E-01  9.450000E+01  3.743631E+01  1.621440E+07  1.622244E+07  9.829889E-01  1.701114E-02  0.000000E+00  1.024000E+03  1.558360E+02  3.429662E-17  3.116219E-01    1 
 5.000000E-01  5.000000E-01  9.550000E+01  3.739556E+01  1.620436E+07  1.621242E+07  9.829256E-01  1.707435E-02  0.000000E+00  1.024000E+03  1.557711E+02  3.430219E-17  3.118711E-01    1 
 5.000000E-01  5.000000E-01  9.650000E+01  3.735481E+01  1.619433E+07  1.620241E+07  9.828626E-01  1.713740E-02  0.000000E+00  1.024000E+03  1.557062E+02  3.430777E-17  3.121205E-01    1 
 5.000000E-01  5.000000E-01  9.750000E+01  3.731407E+01  1.618430E+07  1.619240E+07  9.827997E-01  1.720031E-02  0.000000E+00  1.024000E+03  1.556413E+02  3.431336E-17  3.123701E-01    1 
 5.000000E-01  5.000000E-01  9.850000E+01  3.727333E+01  1.617426E+07  1.618239E+07  9.827369E-01  1.726308E-02  0.000000E+00  1.024000E+03  1.555763E+02  3.431895E-17  3.126199E-01    1 
 5.000000E-01  5.000000E-01  9.950000E+01  3.723260E+01  1.616423E+07  1.617237E+07  9.826743E-01  1.732574E-02  0.000000E+00  1.024000E+03  1.555113E+02  3.432454E-17  3.128699E-01    1 
 5.000000E-01  5.000000E-01  1.005000E+02  3.719186E+01  1.615420E+07  1.616236E+07  9.826117E-01  1.738828E-02  0.000000E+00  1.024000E+03  1.554463E+02  3.433014E-17  3.131201E-01    1 
 5.000000E-01  5.000000E-01  1.015000E+02  3.715114E+01  1.614416E+07  1.615235E+07  9.825493E-01  1.745073E-02  0.000000E+00  1.024000E+03  1.553812E+02  3.433575E-17  3.133705E-01    1 
 5.000000E-01  5.000000E-01  1.025000E+02  3.711041E+01  1.613413E+07  1.614233E+07  9.824869E-01  1.751309E-02  0.000000E+00  1.024000E+03  1.553161E+02  3.434136E-17  3.136211E-01    1 
 5.000000E-01  5.000000E-01  1.035000E+02  3.706969E+01  1.612410E+07  1.613232E+07  9.824246E-01  1.757538E-02  0.000000E+00  1.024000E+03  1.552510E+02  3.434698E-17  3.138719E-01    1 
 5.000000E-01  5.000000E-01  1.045000E+02  3.702897E+01  1.611406E+07  1.612231E+07  9.823624E-01  1.763760E-02  0.000000E+00  1.024000E+03  1.551859E+02  3.435260E-17  3.141229E-01    1 
 5.000000E-01  5.000000E-01  1.055000E+02  3.698826E+01  1.610403E+07  1.611230E+07  9.823002E-01  1.769976E-02  0.000000E+00  1.024000E+03  1.551207E+02  3.435823E-17  3.143741E-01    1 
 5.000000E-01  5.000000E-01  1.065000E+02  3.694755E+01  1.609400E+07  1.610228E+07  9.822381E-01  1.776188E-02  0.000000E+00  1.024000E+03  1.550555E+02  3.436386E-17  3.146255E-01    1 
 5.000000E-01  5.000000E-01  1.075000E+02  3.690684E+01  1.608396E+07  1.609227E+07  9.821760E-01  1.782396E-02  0.000000E+00  1.024000E+03  1.549903E+02  3.436950E-17  3.148771E-01    1 
 5.000000E-01  5.000000E-01  1.085000E+02  3.686614E+01  1.607393E+07  1.608226E+07  9.821140E-01  1.788601E-02  0.000000E+00  1.024000E+03  1.549251E+02  3.437514E-17  3.151289E-01    1 
 5.000000E-01  5.000000E-01  1.095000E+02  3.682544E+01  1.606390E+07  1.607224E+07  9.820520E-01  1.794805E-02  0.000000E+00  1.024000E+03  1.548598E+02  3.438079E-17  3.153809E-01    1 
 5.000000E-01  5.000000E-01  1.105000E+02  3.678474E+01  1.605386E+07  1.606223E+07  9.819899E-01  1.801006E-02  0.000000E+00  1.024000E+03  1.547945E+02  3.438645E-17  3.156331E-01    1 
 5.000000E-01  5.000000E-01  1.115000E+02  3.674405E+01  1.604383E+07  1.605222E+07  9.819279E-01  1.807208E-02  0.000000E+00  1.024000E+03  1.547291E+02  3.439211E-17  3.158855E-01    1 
 5.000000E-01  5.000000E-01  1.125000E+02  3.670336E+01  1.603380E+07  1.604220E+07  9.818659E-01  1.813409E-02  0.000000E+00  1.024000E+03  1.546638E+02  3.439777E-17  3.161381E-01    1 
 5.000000E-01  5.000000E-01  1.135000E+02  3.666268E+01  1.602376E+07  1.603219E+07  9.818039E-01  1.819611E-02  0.000000E+00  1.024000E+03  1.545984E+02  3.440344E-17  3.163909E-01    1 
 5.000000E-01  5.000000E-01  1.145000E+02  3.662199E+01  1.601373E+07  1.602218E+07  9.817419E-01  1.825814E-02  0.000000E+00  1.024000E+03  1.545330E+02  3.440912E-17  3.166439E-01    1 
 5.000000E-01  5.000000E-01  1.155000E+02  3.658132E+01  1.600370E+07  1.601216E+07  9.816798E-01  1.832020E-02  0.000000E+00  1.024000E+03  1.544675E+02  3.441480E-17  3.168971E-01    1 
 5.000000E-01  5.000000E-01  1.165000E+02  3.654064E+01  1.599367E+07  1.600215E+07  9.816177E-01  1.838228E-02  0.000000E+00  1.024000E+03  1.544020E+02  3.442049E-17  3.171506E-01    1 
 5.000000E-01  5.000000E-01  1.175000E+02  3.649997E+01  1.598363E+07  1.599214E+07  9.815556E-01  1.844438E-02  0.000000E+00  1.024000E+03  1.543365E+02  3.442618E-17  3.174042E-01    1 
 5.000000E-01  5.000000E-01  1.185000E+02  3.645930E+01  1.597360E+07  1.598212E+07  9.814935E-01  1.850653E-02  0.000000E+00  1.024000E+03  1.542710E+02  3.443188E-17  3.176580E-01    1 
 5.000000E-01  5.000000E-01  1.195000E+02  3.641864E+01  1.596357E+07  1.597211E+07  9.814313E-01  1.856871E-02  0.000000E+00  1.024000E+03  1.542054E+02  3.443758E-17  3.179120E-01    1 
 5.000000E-01  5.000000E-01  1.205000E+02  3.637798E+01  1.595353E+07  1.596210E+07  9.813691E-01  1.863093E-02  0.000000E+00  1.024000E+03  1.541399E+02  3.444329E-17  3.181663E-01    1 
 5.000000E-01  5.000000E-01  1.215000E+02  3.633733E+01  1.594350E+07  1.595208E+07  9.813068E-01  1.869320E-02  0.000000E+00  1.024000E+03  1.540742E+02  3.444901E-17  3.184207E-01    1 
 5.000000E-01  5.000000E-01  1.225000E+02  3.629667E+01  1.593347E+07  1.594207E+07  9.812445E-01  1.875552E-02  0.000000E+00  1.024000E+03  1.540086E+02  3.445473E-17  3.186753E-01    1 
 5.000000E-01  5.000000E-01  1.235000E+02  3.625602E+01  1.592344E+07  1.593205E+07  9.811821E-01  1.881789E-02  0.000000E+00  1.024000E+03  1.539429E+02  3.446046E-17  3.189302E-01    1 
 5.000000E-01  5.000000E-01  1.245000E+02  3.621538E+01  1.591340E+07  1.592204E+07  9.811197E-01  1.888032E-02  0.000000E+00  1.024000E+03  1.538772E+02  3.446619E-17  3.191852E-01    1 
 5.000000E-01  5.000000E-01  1.255000E+02  3.617474E+01  1.590337E+07  1.591203E+07  9.810572E-01  1.894281E-02  0.000000E+00  1.024000E+03  1.538115E+02  3.447192E-17  3.194405E-01    1 
 5.000000E-01  5.000000E-01  1.265000E+02  3.613410E+01  1.589334E+07  1.590201E+07  9.809946E-01  1.900536E-02  0.000000E+00  1.024000E+03  1.537457E+02  3.447767E-17  3.196959E-01    1 
 5.000000E-01  5.000000E-01  1.275000E+02  3.609347E+01  1.588331E+07  1.589200E+07  9.809320E-01  1.906797E-02  0.000000E+00  1.024000E+03  1.536799E+02  3.448342E-17  3.199516E-01    1 
 5.000000E-01  5.000000E-01  1.285000E+02  3.605284E+01  1.587327E+07  1.588199E+07  9.808694E-01  1.913064E-02  0.000000E+00  1.024000E+03  1.536141E+02  3.448917E-17  3.202074E-01    1 
 5.000000E-01  5.000000E-01  1.295000E+02  3.601221E+01  1.586324E+07  1.587197E+07  9.808066E-01  1.919339E-02  0.000000E+00  1.024000E+03  1.535483E+02  3.449493E-17  3.204635E-01    1 
 5.000000E-01  5.000000E-01  1.305000E+02  3.597159E+01  1.585321E+07  1.586196E+07  9.807438E-01  1.925620E-02  0.000000E+00  1.024000E+03  1.534824E+02  3.450069E-17  3.207197E-01    1 
 5.000000E-01  5.000000E-01  1.315000E+02  3.593097E+01  1.584318E+07  1.585195E+07  9.806809E-01  1.931909E-02  0.000000E+00  1.024000E+03  1.534165E+02  3.450646E-17  3.209762E-01    1 
 5.000000E-01  5.000000E-01  1.325000E+02  3.589035E+01  1.583314E+07  1.584193E+07  9.806179E-01  1.938205E-02  0.000000E+00  1.024000E+03  1.533506E+02  3.451224E-17  3.212329E-01    1 
 5.000000E-01  5.000000E-01  1.335000E+02  3.584974E+01  1.582311E+07  1.583192E+07  9.805549E-01  1.944509E-02  0.000000E+00  1.024000E+03  1.532846E+02  3.451802E-17  3.214898E-01    1 
 5.000000E-01  5.000000E-01  1.345000E+02  3.580913E+01  1.581308E+07  1.582190E+07  9.804918E-01  1.950821E-02  0.000000E+00  1.024000E+03  1.532187E+02  3.452381E-17  3.217469E-01    1 
 5.000000E-01  5.000000E-01  1.355000E+02  3.576853E+01  1.580305E+07  1.581189E+07  9.804286E-01  1.957140E-02  0.000000E+00  1.024000E+03  1.531526E+02  3.452960E-17  3.220042E-01    1 
 5.000000E-01  5.000000E-01  1.365000E+02  3.572792E+01  1.579301E+07  1.580188E+07  9.803653E-01  1.963468E-02  0.000000E+00  1.024000E+03  1.530866E+02  3.453540E-17  3.222617E-01    1 
 5.000000E-01  5.000000E-01  1.375000E+02  3.568733E+01  1.578298E+07  1.579186E+07  9.803020E-01  1.969805E-02  0.000000E+00  1.024000E+03  1.530205E+02  3.454121E-17  3.225194E-01    1 
 5.000000E-01  5.000000E-01  1.385000E+02  3.564673E+01  1.577295E+07  1.578185E+07  9.802385E-01  1.976150E-02  0.000000E+00  1.024000E+03  1.529544E+02  3.454701E-17  3.227773E-01    1 
 5.000000E-01  5.000000E-01  1.395000E+02  3.560614E+01  1.576292E+07  1.577184E+07  9.801750E-01  1.982505E-02  0.000000E+00  1.024000E+03  1.528883E+02  3.455283E-17  3.230354E-01    1 
 5.000000E-01  5.000000E-01  1.405000E+02  3.556556E+01  1.575288E+07  1.576182E+07  9.801113E-01  1.988869E-02  0.000000E+00  1.024000E+03  1.528222E+02  3.455865E-17  3.232937E-01    1 
 5.000000E-01  5.000000E-01  1.415000E+02  3.552498E+01  1.574285E+07  1.575181E+07  9.800476E-01  1.995243E-02  0.000000E+00  1.024000E+03  1.527560E+02  3.456448E-17  3.235523E-01    1 
 5.000000E-01  5.000000E-01  1.425000E+02  3.548440E+01  1.573282E+07  1.574180E+07  9.799837E-01  2.001627E-02  0.000000E+00  1.024000E+03  1.526898E+02  3.457031E-17  3.238110E-01    1 
 5.000000E-01  5.000000E-01  1.435000E+02  3.544382E+01  1.572279E+07  1.573178E+07  9.799198E-01  2.008022E-02  0.000000E+00  1.024000E+03  1.526235E+02  3.457615E-17  3.240699E-01    1 
 5.000000E-01  5.000000E-01  1.445000E+02  3.540325E+01  1.571276E+07  1.572177E+07  9.798557E-01  2.014427E-02  0.000000E+00  1.024000E+03  1.525573E+02  3.458199E-17  3.243291E-01    1 
 5.000000E-01  5.000000E-01  1.455000E+02  3.536268E+01  1.570272E+07  1.571175E+07  9.797916E-01  2.020844E-02  0.000000E+00  1.024000E+03  1.524910E+02  3.458784E-17  3.245885E-01    1 
 5.000000E-01  5.000000E-01  1.465000E+02  3.532212E+01  1.569269E+07  1.570174E+07  9.797273E-01  2.027274E-02  0.000000E+00  1.024000E+03  1.524246E+02  3.459370E-17  3.248480E-01    1 
 5.000000E-01  5.000000E-01  1.475000E+02  3.528156E+01  1.568266E+07  1.569173E+07  9.796628E-01  2.033715E-02  0.000000E+00  1.024000E+03  1.523583E+02  3.459956E-17  3.251078E-01    1 
 5.000000E-01  5.000000E-01  1.485000E+02  3.524100E+01  1.567263E+07  1.568171E+07  9.795983E-01  2.040171E-02  0.000000E+00  1.024000E+03  1.522919E+02  3.460542E-17  3.253678E-01    1 
 5.000000E-01  5.000000E-01  1.495000E+02  3.520045E+01  1.566260E+07  1.567170E+07  9.795336E-01  2.046640E-02  0.000000E+00  1.024000E+03  1.522255E+02  3.461129E-17  3.256280E-01    1 
 5.000000E-01  5.000000E-01  1.505000E+02  3.515990E+01  1.565257E+07  1.566169E+07  9.794688E-01  2.053124E-02  0.000000E+00  1.024000E+03  1.521591E+02  3.461717E-17  3.258884E-01    1 
 5.000000E-01  5.000000E-01  1.515000E+02  3.511936E+01  1.564253E+07  1.565167E+07  9.794038E-01  2.059624E-02  0.000000E+00  1.024000E+03  1.520926E+02  3.462306E-17  3.261490E-01    1 
 5.000000E-01  5.000000E-01  1.525000E+02  3.507882E+01  1.563250E+07  1.564166E+07  9.793386E-01  2.066140E-02  0.000000E+00  1.024000E+03  1.520261E+02  3.462894E-17  3.264098E-01    1 
 5.000000E-01  5.000000E-01  1.535000E+02  3.503828E+01  1.562247E+07  1.563165E+07  9.792733E-01  2.072674E-02  0.000000E+00  1.024000E+03  1.519596E+02  3.463484E-17  3.266708E-01    1 
 5.000000E-01  5.000000E-01  1.545000E+02  3.499775E+01  1.561244E+07  1.562163E+07  9.792077E-01  2.079227E-02  0.000000E+00  1.024000E+03  1.518930E+02  3.464074E-17  3.269320E-01    1 
 5.000000E-01  5.000000E-01  1.555000E+02  3.495722E+01  1.560241E+07  1.561162E+07  9.791420E-01  2.085800E-02  0.000000E+00  1.024000E+03  1.518265E+02  3.464665E-17  3.271935E-01    1 
 5.000000E-01  5.000000E-01  1.565000E+02  3.491669E+01  1.559238E+07  1.560161E+07  9.790761E-01  2.092394E-02  0.000000E+00  1.024000E+03  1.517598E+02  3.465256E-17  3.274551E-01    1 