TITLE = "  5.38000E+04 [y]"
VARIABLES="X [m]","Y [m]","Z [m]","Temperature [C]","Liquid Pressure [Pa]","Gas Pressure [Pa]","Liquid Saturation","Gas Saturation","Hydrate Saturation","Liquid Density [kg/m^3]","Gas Density [kg/m^3]","Permeability X [m^2]","Porosity","Material ID"
ZONE T="5.38000E+04", STRANDID=1, SOLUTIONTIME=5.38000E+04, I=1, J=1, K=1000, DATAPACKING=POINT
 5.000000E-01  5.000000E-01  5.000000E-01  4.260676E+01  1.704456E+07  0.000000E+00  1.000000E+00  0.000000E+00  0.000000E+00  1.024000E+03  0.000000E+00  3.379583E-17  2.890648E-01    1 
 5.000000E-01  5.000000E-01  1.500000E+00  4.256575E+01  1.703452E+07  0.000000E+00  1.000000E+00  0.000000E+00  0.000000E+00  1.024000E+03  0.000000E+00  3.380093E-17  2.892959E-01    1 
 5.000000E-01  5.000000E-01  2.500000E+00  4.252475E+01  1.702449E+07  0.000000E+00  1.000000E+00  0.000000E+00  0.000000E+00  1.024000E+03  0.000000E+00  3.380603E-17  2.895273E-01    1 
 5.000000E-01  5.000000E-01  3.500000E+00  4.248375E+01  1.701445E+07  0.000000E+00  1.000000E+00  0.000000E+00  0.000000E+00  1.024000E+03  0.000000E+00  3.381113E-17  2.897588E-01    1 
 5.000000E-01  5.000000E-01  4.500000E+00  4.244275E+01  1.700442E+07  0.000000E+00  1.000000E+00  0.000000E+00  0.000000E+00  1.024000E+03  0.000000E+00  3.381624E-17  2.899905E-01    1 
 5.000000E-01  5.000000E-01  5.500000E+00  4.240176E+01  1.699438E+07  0.000000E+00  1.000000E+00  0.000000E+00  0.000000E+00  1.024000E+03  0.000000E+00  3.382135E-17  2.902224E-01    1 
 5.000000E-01  5.000000E-01  6.500000E+00  4.236077E+01  1.698435E+07  0.000000E+00  1.000000E+00  0.000000E+00  0.000000E+00  1.024000E+03  0.000000E+00  3.382647E-17  2.904545E-01    1 
 5.000000E-01  5.000000E-01  7.500000E+00  4.231979E+01  1.697431E+07  0.000000E+00  1.000000E+00  0.000000E+00  0.000000E+00  1.024000E+03  0.000000E+00  3.383160E-17  2.906868E-01    1 
 5.000000E-01  5.000000E-01  8.500000E+00  4.227881E+01  1.696428E+07  0.000000E+00  1.000000E+00  0.000000E+00  0.000000E+00  1.024000E+03  0.000000E+00  3.383673E-17  2.909192E-01    1 
 5.000000E-01  5.000000E-01  9.500000E+00  4.223783E+01  1.695424E+07  0.000000E+00  1.000000E+00  0.000000E+00  0.000000E+00  1.024000E+03  0.000000E+00  3.384186E-17  2.911519E-01    1 
 5.000000E-01  5.000000E-01  1.050000E+01  4.219685E+01  1.694421E+07  0.000000E+00  1.000000E+00  0.000000E+00  0.000000E+00  1.024000E+03  0.000000E+00  3.384700E-17  2.913847E-01    1 
 5.000000E-01  5.000000E-01  1.150000E+01  4.215588E+01  1.693417E+07  0.000000E+00  1.000000E+00  0.000000E+00  0.000000E+00  1.024000E+03  0.000000E+00  3.385214E-17  2.916177E-01    1 
 5.000000E-01  5.000000E-01  1.250000E+01  4.211491E+01  1.692413E+07  0.000000E+00  1.000000E+00  0.000000E+00  0.000000E+00  1.024000E+03  0.000000E+00  3.385729E-17  2.918509E-01    1 
 5.000000E-01  5.000000E-01  1.350000E+01  4.207395E+01  1.691410E+07  0.000000E+00  1.000000E+00  0.000000E+00  0.000000E+00  1.024000E+03  0.000000E+00  3.386244E-17  2.920843E-01    1 
 5.000000E-01  5.000000E-01  1.450000E+01  4.203299E+01  1.690406E+07  0.000000E+00  1.000000E+00  0.000000E+00  0.000000E+00  1.024000E+03  0.000000E+00  3.386760E-17  2.923179E-01    1 
 5.000000E-01  5.000000E-01  1.550000E+01  4.199203E+01  1.689403E+07  0.000000E+00  1.000000E+00  0.000000E+00  0.000000E+00  1.024000E+03  0.000000E+00  3.387276E-17  2.925516E-01    1 
 5.000000E-01  5.000000E-01  1.650000E+01  4.195107E+01  1.688399E+07  0.000000E+00  1.000000E+00  0.000000E+00  0.000000E+00  1.024000E+03  0.000000E+00  3.387793E-17  2.927856E-01    1 
 5.000000E-01  5.000000E-01  1.750000E+01  4.191012E+01  1.687396E+07  0.000000E+00  1.000000E+00  0.000000E+00  0.000000E+00  1.024000E+03  0.000000E+00  3.388310E-17  2.930197E-01    1 
 5.000000E-01  5.000000E-01  1.850000E+01  4.186918E+01  1.686392E+07  0.000000E+00  1.000000E+00  0.000000E+00  0.000000E+00  1.024000E+03  0.000000E+00  3.388828E-17  2.932541E-01    1 
 5.000000E-01  5.000000E-01  1.950000E+01  4.182823E+01  1.685389E+07  0.000000E+00  1.000000E+00  0.000000E+00  0.000000E+00  1.024000E+03  0.000000E+00  3.389346E-17  2.934886E-01    1 
 5.000000E-01  5.000000E-01  2.050000E+01  4.178729E+01  1.684385E+07  0.000000E+00  1.000000E+00  0.000000E+00  0.000000E+00  1.024000E+03  0.000000E+00  3.389865E-17  2.937233E-01    1 
 5.000000E-01  5.000000E-01  2.150000E+01  4.174635E+01  1.683382E+07  0.000000E+00  1.000000E+00  0.000000E+00  0.000000E+00  1.024000E+03  0.000000E+00  3.390384E-17  2.939581E-01    1 
 5.000000E-01  5.000000E-01  2.250000E+01  4.170542E+01  1.682378E+07  0.000000E+00  1.000000E+00  0.000000E+00  0.000000E+00  1.024000E+03  0.000000E+00  3.390904E-17  2.941932E-01    1 
 5.000000E-01  5.000000E-01  2.350000E+01  4.166449E+01  1.681375E+07  0.000000E+00  1.000000E+00  0.000000E+00  0.000000E+00  1.024000E+03  0.000000E+00  3.391424E-17  2.944285E-01    1 
 5.000000E-01  5.000000E-01  2.450000E+01  4.162356E+01  1.680371E+07  0.000000E+00  1.000000E+00  0.000000E+00  0.000000E+00  1.024000E+03  0.000000E+00  3.391945E-17  2.946639E-01    1 
 5.000000E-01  5.000000E-01  2.550000E+01  4.158264E+01  1.679368E+07  0.000000E+00  1.000000E+00  0.000000E+00  0.000000E+00  1.024000E+03  0.000000E+00  3.392466E-17  2.948996E-01    1 
 5.000000E-01  5.000000E-01  2.650000E+01  4.154172E+01  1.678364E+07  0.000000E+00  1.000000E+00  0.000000E+00  0.000000E+00  1.024000E+03  0.000000E+00  3.392988E-17  2.951354E-01    1 
 5.000000E-01  5.000000E-01  2.750000E+01  4.150080E+01  1.677361E+07  0.000000E+00  1.000000E+00  0.000000E+00  0.000000E+00  1.024000E+03  0.000000E+00  3.393510E-17  2.953714E-01    1 
 5.000000E-01  5.000000E-01  2.850000E+01  4.145989E+01  1.676357E+07  0.000000E+00  1.000000E+00  0.000000E+00  0.000000E+00  1.024000E+03  0.000000E+00  3.394033E-17  2.956076E-01    1 
 5.000000E-01  5.000000E-01  2.950000E+01  4.141898E+01  1.675354E+07  0.000000E+00  1.000000E+00  0.000000E+00  0.000000E+00  1.024000E+03  0.000000E+00  3.394556E-17  2.958440E-01    1 
 5.000000E-01  5.000000E-01  3.050000E+01  4.137807E+01  1.674350E+07  0.000000E+00  1.000000E+00  0.000000E+00  0.000000E+00  1.024000E+03  0.000000E+00  3.395080E-17  2.960806E-01    1 
 5.000000E-01  5.000000E-01  3.150000E+01  4.133717E+01  1.673347E+07  0.000000E+00  1.000000E+00  0.000000E+00  0.000000E+00  1.024000E+03  0.000000E+00  3.395604E-17  2.963173E-01    1 
 5.000000E-01  5.000000E-01  3.250000E+01  4.129627E+01  1.672343E+07  1.672344E+07  9.999767E-01  2.328436E-05  0.000000E+00  1.024000E+03  1.582619E+02  3.396129E-17  2.965543E-01    1 
 5.000000E-01  5.000000E-01  3.350000E+01  4.125537E+01  1.671339E+07  1.671343E+07  9.999389E-01  6.106664E-05  0.000000E+00  1.024000E+03  1.581985E+02  3.396654E-17  2.967915E-01    1 
 5.000000E-01  5.000000E-01  3.450000E+01  4.121448E+01  1.670336E+07  1.670342E+07  9.998999E-01  1.001121E-04  0.000000E+00  1.024000E+03  1.581351E+02  3.397180E-17  2.970288E-01    1 
 5.000000E-01  5.000000E-01  3.550000E+01  4.117359E+01  1.669332E+07  1.669341E+07  9.998610E-01  1.389518E-04  0.000000E+00  1.024000E+03  1.580717E+02  3.397706E-17  2.972663E-01    1 
 5.000000E-01  5.000000E-01  3.650000E+01  4.113270E+01  1.668329E+07  1.668340E+07  9.998219E-01  1.781330E-04  0.000000E+00  1.024000E+03  1.580083E+02  3.398233E-17  2.975040E-01    1 
 5.000000E-01  5.000000E-01  3.750000E+01  4.109182E+01  1.667325E+07  1.667339E+07  9.997819E-01  2.181104E-04  0.000000E+00  1.024000E+03  1.579448E+02  3.398760E-17  2.977419E-01    1 
 5.000000E-01  5.000000E-01  3.850000E+01  4.105094E+01  1.666322E+07  1.666337E+07  9.997409E-01  2.591226E-04  0.000000E+00  1.024000E+03  1.578813E+02  3.399288E-17  2.979800E-01    1 
 5.000000E-01  5.000000E-01  3.950000E+01  4.101006E+01  1.665318E+07  1.665336E+07  9.996987E-01  3.013484E-04  0.000000E+00  1.024000E+03  1.578178E+02  3.399816E-17  2.982183E-01    1 
 5.000000E-01  5.000000E-01  4.050000E+01  4.096919E+01  1.664315E+07  1.664335E+07  9.996553E-01  3.447215E-04  0.000000E+00  1.024000E+03  1.577542E+02  3.400345E-17  2.984568E-01    1 
 5.000000E-01  5.000000E-01  4.150000E+01  4.092832E+01  1.663311E+07  1.663335E+07  9.996109E-01  3.891024E-04  0.000000E+00  1.024000E+03  1.576907E+02  3.400874E-17  2.986955E-01    1 
 5.000000E-01  5.000000E-01  4.250000E+01  4.088746E+01  1.662307E+07  1.662334E+07  9.995653E-01  4.346602E-04  0.000000E+00  1.024000E+03  1.576271E+02  3.401404E-17  2.989343E-01    1 
 5.000000E-01  5.000000E-01  4.350000E+01  4.084659E+01  1.661304E+07  1.661333E+07  9.995188E-01  4.811538E-04  0.000000E+00  1.024000E+03  1.575635E+02  3.401934E-17  2.991734E-01    1 
 5.000000E-01  5.000000E-01  4.450000E+01  4.080573E+01  1.660300E+07  1.660332E+07  9.994719E-01  5.281057E-04  0.000000E+00  1.024000E+03  1.574999E+02  3.402465E-17  2.994126E-01    1 
 5.000000E-01  5.000000E-01  4.550000E+01  4.076488E+01  1.659297E+07  1.659331E+07  9.994248E-01  5.752436E-04  0.000000E+00  1.024000E+03  1.574362E+02  3.402996E-17  2.996521E-01    1 
 5.000000E-01  5.000000E-01  4.650000E+01  4.072402E+01  1.658293E+07  1.658331E+07  9.993775E-01  6.224849E-04  0.000000E+00  1.024000E+03  1.573725E+02  3.403528E-17  2.998917E-01    1 
 5.000000E-01  5.000000E-01  4.750000E+01  4.068317E+01  1.657289E+07  1.657330E+07  9.993304E-01  6.695916E-04  0.000000E+00  1.024000E+03  1.573088E+02  3.404060E-17  3.001315E-01    1 
 5.000000E-01  5.000000E-01  4.850000E+01  4.064233E+01  1.656286E+07  1.656329E+07  9.992835E-01  7.164866E-04  0.000000E+00  1.024000E+03  1.572451E+02  3.404593E-17  3.003715E-01    1 
 5.000000E-01  5.000000E-01  4.950000E+01  4.060149E+01  1.655282E+07  1.655328E+07  9.992370E-01  7.630493E-04  0.000000E+00  1.024000E+03  1.571813E+02  3.405126E-17  3.006117E-01    1 
 5.000000E-01  5.000000E-01  5.050000E+01  4.056065E+01  1.654279E+07  1.654327E+07  9.991908E-01  8.092223E-04  0.000000E+00  1.024000E+03  1.571175E+02  3.405660E-17  3.008521E-01    1 
 5.000000E-01  5.000000E-01  5.150000E+01  4.051981E+01  1.653275E+07  1.653326E+07  9.991450E-01  8.549769E-04  0.000000E+00  1.024000E+03  1.570537E+02  3.406195E-17  3.010927E-01    1 
 5.000000E-01  5.000000E-01  5.250000E+01  4.047898E+01  1.652271E+07  1.652325E+07  9.990996E-01  9.003742E-04  0.000000E+00  1.024000E+03  1.569898E+02  3.406729E-17  3.013335E-01    1 
 5.000000E-01  5.000000E-01  5.350000E+01  4.043815E+01  1.651268E+07  1.651325E+07  9.990544E-01  9.455531E-04  0.000000E+00  1.024000E+03  1.569259E+02  3.407265E-17  3.015744E-01    1 
 5.000000E-01  5.000000E-01  5.450000E+01  4.039732E+01  1.650264E+07  1.650324E+07  9.990093E-01  9.907196E-04  0.000000E+00  1.024000E+03  1.568620E+02  3.407801E-17  3.018156E-01    1 
 5.000000E-01  5.000000E-01  5.550000E+01  4.035650E+01  1.649260E+07  1.649323E+07  9.989639E-01  1.036106E-03  0.000000E+00  1.024000E+03  1.567981E+02  3.408337E-17  3.020570E-01    1 
 5.000000E-01  5.000000E-01  5.650000E+01  4.031568E+01  1.648257E+07  1.648322E+07  9.989181E-01  1.081945E-03  0.000000E+00  1.024000E+03  1.567341E+02  3.408874E-17  3.022985E-01    1 
 5.000000E-01  5.000000E-01  5.750000E+01  4.027486E+01  1.647253E+07  1.647321E+07  9.988716E-01  1.128449E-03  0.000000E+00  1.024000E+03  1.566701E+02  3.409411E-17  3.025403E-01    1 
 5.000000E-01  5.000000E-01  5.850000E+01  4.023405E+01  1.646249E+07  1.646320E+07  9.988242E-01  1.175771E-03  0.000000E+00  1.024000E+03  1.566061E+02  3.409949E-17  3.027822E-01    1 
 5.000000E-01  5.000000E-01  5.950000E+01  4.019324E+01  1.645246E+07  1.645319E+07  9.987760E-01  1.224011E-03  0.000000E+00  1.024000E+03  1.565420E+02  3.410488E-17  3.030243E-01    1 
 5.000000E-01  5.000000E-01  6.050000E+01  4.015244E+01  1.644242E+07  1.644318E+07  9.987268E-01  1.273212E-03  0.000000E+00  1.024000E+03  1.564780E+02  3.411027E-17  3.032666E-01    1 
 5.000000E-01  5.000000E-01  6.150000E+01  4.011163E+01  1.643238E+07  1.643317E+07  9.986766E-01  1.323352E-03  0.000000E+00  1.024000E+03  1.564139E+02  3.411566E-17  3.035092E-01    1 
 5.000000E-01  5.000000E-01  6.250000E+01  4.007083E+01  1.642235E+07  1.642317E+07  9.986257E-01  1.374344E-03  0.000000E+00  1.024000E+03  1.563498E+02  3.412106E-17  3.037519E-01    1 
 5.000000E-01  5.000000E-01  6.350000E+01  4.003004E+01  1.641231E+07  1.641316E+07  9.985740E-01  1.426047E-03  0.000000E+00  1.024000E+03  1.562857E+02  3.412647E-17  3.039948E-01    1 
 5.000000E-01  5.000000E-01  6.450000E+01  3.998924E+01  1.640227E+07  1.640315E+07  9.985217E-01  1.478288E-03  0.000000E+00  1.024000E+03  1.562215E+02  3.413188E-17  3.042379E-01    1 
 5.000000E-01  5.000000E-01  6.550000E+01  3.994846E+01  1.639223E+07  1.639315E+07  9.984691E-01  1.530900E-03  0.000000E+00  1.024000E+03  1.561573E+02  3.413729E-17  3.044812E-01    1 
 5.000000E-01  5.000000E-01  6.650000E+01  3.990767E+01  1.638220E+07  1.638314E+07  9.984162E-01  1.583750E-03  0.000000E+00  1.024000E+03  1.560931E+02  3.414271E-17  3.047247E-01    1 
 5.000000E-01  5.000000E-01  6.750000E+01  3.986689E+01  1.637216E+07  1.637313E+07  9.983632E-01  1.636764E-03  0.000000E+00  1.024000E+03  1.560289E+02  3.414814E-17  3.049683E-01    1 
 5.000000E-01  5.000000E-01  6.850000E+01  3.982611E+01  1.636212E+07  1.636313E+07  9.983101E-01  1.689929E-03  0.000000E+00  1.024000E+03  1.559646E+02  3.415357E-17  3.052122E-01    1 
 5.000000E-01  5.000000E-01  6.950000E+01  3.978533E+01  1.635208E+07  1.635312E+07  9.982567E-01  1.743296E-03  0.000000E+00  1.024000E+03  1.559003E+02  3.415901E-17  3.054563E-01    1 
 5.000000E-01  5.000000E-01  7.050000E+01  3.974456E+01  1.634205E+07  1.634312E+07  9.982030E-01  1.796971E-03  0.000000E+00  1.024000E+03  1.558360E+02  3.416445E-17  3.057006E-01    1 
 5.000000E-01  5.000000E-01  7.150000E+01  3.970379E+01  1.633201E+07  1.633311E+07  9.981489E-01  1.851104E-03  0.000000E+00  1.024000E+03  1.557716E+02  3.416989E-17  3.059450E-01    1 
 5.000000E-01  5.000000E-01  7.250000E+01  3.966302E+01  1.632197E+07  1.632310E+07  9.980941E-01  1.905869E-03  0.000000E+00  1.024000E+03  1.557073E+02  3.417535E-17  3.061897E-01    1 
 5.000000E-01  5.000000E-01  7.350000E+01  3.962226E+01  1.631193E+07  1.631310E+07  9.980386E-01  1.961447E-03  0.000000E+00  1.024000E+03  1.556429E+02  3.418080E-17  3.064345E-01    1 
 5.000000E-01  5.000000E-01  7.450000E+01  3.958150E+01  1.630190E+07  1.630309E+07  9.979820E-01  2.018009E-03  0.000000E+00  1.024000E+03  1.555784E+02  3.418627E-17  3.066796E-01    1 
 5.000000E-01  5.000000E-01  7.550000E+01  3.954075E+01  1.629186E+07  1.629309E+07  9.979243E-01  2.075699E-03  0.000000E+00  1.024000E+03  1.555140E+02  3.419173E-17  3.069248E-01    1 
 5.000000E-01  5.000000E-01  7.650000E+01  3.949999E+01  1.628182E+07  1.628308E+07  9.978654E-01  2.134633E-03  0.000000E+00  1.024000E+03  1.554495E+02  3.419721E-17  3.071703E-01    1 
 5.000000E-01  5.000000E-01  7.750000E+01  3.945924E+01  1.627178E+07  1.627308E+07  9.978051E-01  2.194889E-03  0.000000E+00  1.024000E+03  1.553851E+02  3.420268E-17  3.074159E-01    1 
 5.000000E-01  5.000000E-01  7.850000E+01  3.941850E+01  1.626174E+07  1.626308E+07  9.977435E-01  2.256515E-03  0.000000E+00  1.024000E+03  1.553205E+02  3.420817E-17  3.076617E-01    1 
 5.000000E-01  5.000000E-01  7.950000E+01  3.937775E+01  1.625170E+07  1.625307E+07  9.976805E-01  2.319528E-03  0.000000E+00  1.024000E+03  1.552560E+02  3.421366E-17  3.079078E-01    1 
 5.000000E-01  5.000000E-01  8.050000E+01  3.933702E+01  1.624167E+07  1.624307E+07  9.976161E-01  2.383919E-03  0.000000E+00  1.024000E+03  1.551915E+02  3.421915E-17  3.081540E-01    1 
 5.000000E-01  5.000000E-01  8.150000E+01  3.929628E+01  1.623163E+07  1.623307E+07  9.975503E-01  2.449652E-03  0.000000E+00  1.024000E+03  1.551269E+02  3.422465E-17  3.084004E-01    1 
 5.000000E-01  5.000000E-01  8.250000E+01  3.925555E+01  1.622159E+07  1.622307E+07  9.974833E-01  2.516658E-03  0.000000E+00  1.024000E+03  1.550623E+02  3.423015E-17  3.086470E-01    1 
 5.000000E-01  5.000000E-01  8.350000E+01  3.921482E+01  1.621155E+07  1.621307E+07  9.974152E-01  2.584838E-03  0.000000E+00  1.024000E+03  1.549977E+02  3.423566E-17  3.088939E-01    1 
 5.000000E-01  5.000000E-01  8.450000E+01  3.917409E+01  1.620151E+07  1.620307E+07  9.973459E-01  2.654060E-03  0.000000E+00  1.024000E+03  1.549330E+02  3.424118E-17  3.091409E-01    1 
 5.000000E-01  5.000000E-01  8.550000E+01  3.913337E+01  1.619147E+07  1.619307E+07  9.972758E-01  2.724166E-03  0.000000E+00  1.024000E+03  1.548684E+02  3.424670E-17  3.093881E-01    1 
 5.000000E-01  5.000000E-01  8.650000E+01  3.909265E+01  1.618144E+07  1.618308E+07  9.972050E-01  2.794988E-03  0.000000E+00  1.024000E+03  1.548037E+02  3.425222E-17  3.096355E-01    1 
 5.000000E-01  5.000000E-01  8.750000E+01  3.905193E+01  1.617140E+07  1.617308E+07  9.971336E-01  2.866365E-03  0.000000E+00  1.024000E+03  1.547390E+02  3.425775E-17  3.098831E-01    1 
 5.000000E-01  5.000000E-01  8.850000E+01  3.901122E+01  1.616136E+07  1.616308E+07  9.970618E-01  2.938168E-03  0.000000E+00  1.024000E+03  1.546742E+02  3.426329E-17  3.101309E-01    1 
 5.000000E-01  5.000000E-01  8.950000E+01  3.897051E+01  1.615132E+07  1.615308E+07  9.969897E-01  3.010321E-03  0.000000E+00  1.024000E+03  1.546094E+02  3.426883E-17  3.103789E-01    1 
 5.000000E-01  5.000000E-01  9.050000E+01  3.892980E+01  1.614128E+07  1.614308E+07  9.969172E-01  3.082818E-03  0.000000E+00  1.024000E+03  1.545447E+02  3.427438E-17  3.106271E-01    1 
 5.000000E-01  5.000000E-01  9.150000E+01  3.888910E+01  1.613124E+07  1.613308E+07  9.968443E-01  3.155720E-03  0.000000E+00  1.024000E+03  1.544798E+02  3.427993E-17  3.108755E-01    1 
 5.000000E-01  5.000000E-01  9.250000E+01  3.884840E+01  1.612120E+07  1.612308E+07  9.967709E-01  3.229146E-03  0.000000E+00  1.024000E+03  1.544150E+02  3.428549E-17  3.111241E-01    1 
 5.000000E-01  5.000000E-01  9.350000E+01  3.880770E+01  1.611116E+07  1.611309E+07  9.966968E-01  3.303242E-03  0.000000E+00  1.024000E+03  1.543501E+02  3.429105E-17  3.113729E-01    1 
 5.000000E-01  5.000000E-01  9.450000E+01  3.876701E+01  1.610112E+07  1.610309E+07  9.966219E-01  3.378149E-03  0.000000E+00  1.024000E+03  1.542852E+02  3.429662E-17  3.116219E-01    1 
 5.000000E-01  5.000000E-01  9.550000E+01  3.872632E+01  1.609108E+07  1.609309E+07  9.965460E-01  3.453962E-03  0.000000E+00  1.024000E+03  1.542203E+02  3.430219E-17  3.118711E-01    1 
 5.000000E-01  5.000000E-01  9.650000E+01  3.868563E+01  1.608104E+07  1.608309E+07  9.964693E-01  3.530700E-03  0.000000E+00  1.024000E+03  1.541553E+02  3.430777E-17  3.121205E-01    1 
 5.000000E-01  5.000000E-01  9.750000E+01  3.864495E+01  1.607100E+07  1.607310E+07  9.963917E-01  3.608283E-03  0.000000E+00  1.024000E+03  1.540903E+02  3.431336E-17  3.123701E-01    1 
 5.000000E-01  5.000000E-01  9.850000E+01  3.860426E+01  1.606096E+07  1.606310E+07  9.963135E-01  3.686528E-03  0.000000E+00  1.024000E+03  1.540253E+02  3.431895E-17  3.126199E-01    1 
 5.000000E-01  5.000000E-01  9.950000E+01  3.856359E+01  1.605092E+07  1.605310E+07  9.962348E-01  3.765157E-03  0.000000E+00  1.024000E+03  1.539603E+02  3.432454E-17  3.128699E-01    1 
 5.000000E-01  5.000000E-01  1.005000E+02  3.852291E+01  1.604088E+07  1.604311E+07  9.961562E-01  3.843815E-03  0.000000E+00  1.024000E+03  1.538952E+02  3.433014E-17  3.131201E-01    1 
 5.000000E-01  5.000000E-01  1.015000E+02  3.848224E+01  1.603084E+07  1.603311E+07  9.960779E-01  3.922100E-03  0.000000E+00  1.024000E+03  1.538302E+02  3.433575E-17  3.133705E-01    1 
 5.000000E-01  5.000000E-01  1.025000E+02  3.844157E+01  1.602080E+07  1.602311E+07  9.960004E-01  3.999598E-03  0.000000E+00  1.024000E+03  1.537650E+02  3.434136E-17  3.136211E-01    1 
 5.000000E-01  5.000000E-01  1.035000E+02  3.840091E+01  1.601076E+07  1.601311E+07  9.959241E-01  4.075917E-03  0.000000E+00  1.024000E+03  1.536999E+02  3.434698E-17  3.138719E-01    1 
 5.000000E-01  5.000000E-01  1.045000E+02  3.836025E+01  1.600072E+07  1.600311E+07  9.958493E-01  4.150718E-03  0.000000E+00  1.024000E+03  1.536347E+02  3.435260E-17  3.141229E-01    1 
 5.000000E-01  5.000000E-01  1.055000E+02  3.831959E+01  1.599068E+07  1.599311E+07  9.957763E-01  4.223741E-03  0.000000E+00  1.024000E+03  1.535695E+02  3.435823E-17  3.143741E-01    1 
 5.000000E-01  5.000000E-01  1.065000E+02  3.827894E+01  1.598064E+07  1.598311E+07  9.957052E-01  4.294820E-03  0.000000E+00  1.024000E+03  1.535042E+02  3.436386E-17  3.146255E-01    1 
 5.000000E-01  5.000000E-01  1.075000E+02  3.823828E+01  1.597060E+07  1.597311E+07  9.956361E-01  4.363888E-03  0.000000E+00  1.024000E+03  1.534389E+02  3.436950E-17  3.148771E-01    1 
 5.000000E-01  5.000000E-01  1.085000E+02  3.819764E+01  1.596056E+07  1.596310E+07  9.955690E-01  4.430973E-03  0.000000E+00  1.024000E+03  1.533735E+02  3.437514E-17  3.151289E-01    1 
 5.000000E-01  5.000000E-01  1.095000E+02  3.815699E+01  1.595052E+07  1.595310E+07  9.955038E-01  4.496180E-03  0.000000E+00  1.024000E+03  1.533082E+02  3.438079E-17  3.153809E-01    1 
 5.000000E-01  5.000000E-01  1.105000E+02  3.811635E+01  1.594048E+07  1.594309E+07  9.954403E-01  4.559676E-03  0.000000E+00  1.024000E+03  1.532428E+02  3.438645E-17  3.156331E-01    1 
 5.000000E-01  5.000000E-01  1.115000E+02  3.807571E+01  1.593044E+07  1.593308E+07  9.953783E-01  4.621662E-03  0.000000E+00  1.024000E+03  1.531773E+02  3.439211E-17  3.158855E-01    1 
 5.000000E-01  5.000000E-01  1.125000E+02  3.803508E+01  1.592040E+07  1.592307E+07  9.953176E-01  4.682352E-03  0.000000E+00  1.024000E+03  1.531118E+02  3.439777E-17  3.161381E-01    1 
 5.000000E-01  5.000000E-01  1.135000E+02  3.799445E+01  1.591036E+07  1.591307E+07  9.952580E-01  4.741951E-03  0.000000E+00  1.024000E+03  1.530463E+02  3.440344E-17  3.163909E-01    1 
 5.000000E-01  5.000000E-01  1.145000E+02  3.795382E+01  1.590032E+07  1.590306E+07  9.951994E-01  4.800642E-03  0.000000E+00  1.024000E+03  1.529807E+02  3.440912E-17  3.166439E-01    1 
 5.000000E-01  5.000000E-01  1.155000E+02  3.791319E+01  1.589027E+07  1.589305E+07  9.951414E-01  4.858576E-03  0.000000E+00  1.024000E+03  1.529152E+02  3.441480E-17  3.168971E-01    1 
 5.000000E-01  5.000000E-01  1.165000E+02  3.787257E+01  1.588023E+07  1.588303E+07  9.950841E-01  4.915868E-03  0.000000E+00  1.024000E+03  1.528495E+02  3.442049E-17  3.171506E-01    1 
 5.000000E-01  5.000000E-01  1.175000E+02  3.783195E+01  1.587019E+07  1.587302E+07  9.950274E-01  4.972601E-03  0.000000E+00  1.024000E+03  1.527839E+02  3.442618E-17  3.174042E-01    1 
 5.000000E-01  5.000000E-01  1.185000E+02  3.779134E+01  1.586015E+07  1.586301E+07  9.949712E-01  5.028830E-03  0.000000E+00  1.024000E+03  1.527182E+02  3.443188E-17  3.176580E-01    1 
 5.000000E-01  5.000000E-01  1.195000E+02  3.775073E+01  1.585011E+07  1.585300E+07  9.949154E-01  5.084588E-03  0.000000E+00  1.024000E+03  1.526525E+02  3.443758E-17  3.179120E-01    1 
 5.000000E-01  5.000000E-01  1.205000E+02  3.771012E+01  1.584007E+07  1.584299E+07  9.948601E-01  5.139896E-03  0.000000E+00  1.024000E+03  1.525868E+02  3.444329E-17  3.181663E-01    1 
 5.000000E-01  5.000000E-01  1.215000E+02  3.766951E+01  1.583003E+07  1.583297E+07  9.948052E-01  5.194764E-03  0.000000E+00  1.024000E+03  1.525210E+02  3.444901E-17  3.184207E-01    1 
 5.000000E-01  5.000000E-01  1.225000E+02  3.762891E+01  1.581998E+07  1.582296E+07  9.947508E-01  5.249206E-03  0.000000E+00  1.024000E+03  1.524552E+02  3.445473E-17  3.186753E-01    1 
 5.000000E-01  5.000000E-01  1.235000E+02  3.758832E+01  1.580994E+07  1.581295E+07  9.946968E-01  5.303232E-03  0.000000E+00  1.024000E+03  1.523894E+02  3.446046E-17  3.189302E-01    1 
 5.000000E-01  5.000000E-01  1.245000E+02  3.754772E+01  1.579990E+07  1.580293E+07  9.946431E-01  5.356863E-03  0.000000E+00  1.024000E+03  1.523235E+02  3.446619E-17  3.191852E-01    1 
 5.000000E-01  5.000000E-01  1.255000E+02  3.750713E+01  1.578986E+07  1.579292E+07  9.945899E-01  5.410121E-03  0.000000E+00  1.024000E+03  1.522576E+02  3.447192E-17  3.194405E-01    1 
 5.000000E-01  5.000000E-01  1.265000E+02  3.746654E+01  1.577982E+07  1.578290E+07  9.945370E-01  5.463037E-03  0.000000E+00  1.024000E+03  1.521917E+02  3.447767E-17  3.196959E-01    1 
 5.000000E-01  5.000000E-01  1.275000E+02  3.742596E+01  1.576977E+07  1.577289E+07  9.944844E-01  5.515645E-03  0.000000E+00  1.024000E+03  1.521257E+02  3.448342E-17  3.199516E-01    1 
 5.000000E-01  5.000000E-01  1.285000E+02  3.738538E+01  1.575973E+07  1.576287E+07  9.944320E-01  5.567985E-03  0.000000E+00  1.024000E+03  1.520597E+02  3.448917E-17  3.202074E-01    1 
 5.000000E-01  5.000000E-01  1.295000E+02  3.734480E+01  1.574969E+07  1.575286E+07  9.943799E-01  5.620099E-03  0.000000E+00  1.024000E+03  1.519937E+02  3.449493E-17  3.204635E-01    1 
 5.000000E-01  5.000000E-01  1.305000E+02  3.730423E+01  1.573965E+07  1.574284E+07  9.943280E-01  5.672032E-03  0.000000E+00  1.024000E+03  1.519277E+02  3.450069E-17  3.207197E-01    1 
 5.000000E-01  5.000000E-01  1.315000E+02  3.726366E+01  1.572960E+07  1.573283E+07  9.942762E-01  5.723827E-03  0.000000E+00  1.024000E+03  1.518616E+02  3.450646E-17  3.209762E-01    1 
 5.000000E-01  5.000000E-01  1.325000E+02  3.722309E+01  1.571956E+07  1.572281E+07  9.942245E-01  5.775530E-03  0.000000E+00  1.024000E+03  1.517955E+02  3.451224E-17  3.212329E-01    1 
 5.000000E-01  5.000000E-01  1.335000E+02  3.718253E+01  1.570952E+07  1.571280E+07  9.941728E-01  5.827183E-03  0.000000E+00  1.024000E+03  1.517294E+02  3.451802E-17  3.214898E-01    1 
 5.000000E-01  5.000000E-01  1.345000E+02  3.714197E+01  1.569948E+07  1.570278E+07  9.941212E-01  5.878829E-03  0.000000E+00  1.024000E+03  1.516632E+02  3.452381E-17  3.217469E-01    1 
 5.000000E-01  5.000000E-01  1.355000E+02  3.710141E+01  1.568943E+07  1.569276E+07  9.940695E-01  5.930506E-03  0.000000E+00  1.024000E+03  1.515970E+02  3.452960E-17  3.220042E-01    1 
 5.000000E-01  5.000000E-01  1.365000E+02  3.706086E+01  1.567939E+07  1.568275E+07  9.940177E-01  5.982253E-03  0.000000E+00  1.024000E+03  1.515308E+02  3.453540E-17  3.222617E-01    1 
 5.000000E-01  5.000000E-01  1.375000E+02  3.702031E+01  1.566935E+07  1.567273E+07  9.939659E-01  6.034107E-03  0.000000E+00  1.024000E+03  1.514645E+02  3.454121E-17  3.225194E-01    1 
 5.000000E-01  5.000000E-01  1.385000E+02  3.697976E+01  1.565930E+07  1.566271E+07  9.939139E-01  6.086101E-03  0.000000E+00  1.024000E+03  1.513983E+02  3.454701E-17  3.227773E-01    1 
 5.000000E-01  5.000000E-01  1.395000E+02  3.693922E+01  1.564926E+07  1.565270E+07  9.938617E-01  6.138268E-03  0.000000E+00  1.024000E+03  1.513319E+02  3.455283E-17  3.230354E-01    1 
 5.000000E-01  5.000000E-01  1.405000E+02  3.689868E+01  1.563922E+07  1.564268E+07  9.938094E-01  6.190642E-03  0.000000E+00  1.024000E+03  1.512656E+02  3.455865E-17  3.232937E-01    1 
 5.000000E-01  5.000000E-01  1.415000E+02  3.685814E+01  1.562917E+07  1.563266E+07  9.937567E-01  6.243253E-03  0.000000E+00  1.024000E+03  1.511992E+02  3.456448E-17  3.235523E-01    1 
 5.000000E-01  5.000000E-01  1.425000E+02  3.681761E+01  1.561913E+07  1.562265E+07  9.937039E-01  6.296131E-03  0.000000E+00  1.024000E+03  1.511329E+02  3.457031E-17  3.238110E-01    1 
 5.000000E-01  5.000000E-01  1.435000E+02  3.677708E+01  1.560909E+07  1.561263E+07  9.936507E-01  6.349309E-03  0.000000E+00  1.024000E+03  1.510664E+02  3.457615E-17  3.240699E-01    1 
 5.000000E-01  5.000000E-01  1.445000E+02  3.673655E+01  1.559904E+07  1.560262E+07  9.935972E-01  6.402817E-03  0.000000E+00  1.024000E+03  1.510000E+02  3.458199E-17  3.243291E-01    1 
 5.000000E-01  5.000000E-01  1.455000E+02  3.669603E+01  1.558900E+07  1.559260E+07  9.935433E-01  6.456687E-03  0.000000E+00  1.024000E+03  1.509335E+02  3.458784E-17  3.245885E-01    1 
 5.000000E-01  5.000000E-01  1.465000E+02  3.665551E+01  1.557896E+07  1.558258E+07  9.934890E-01  6.510954E-03  0.000000E+00  1.024000E+03  1.508670E+02  3.459370E-17  3.248480E-01    1 
 5.000000E-01  5.000000E-01  1.475000E+02  3.661499E+01  1.556891E+07  1.557257E+07  9.934343E-01  6.565652E-03  0.000000E+00  1.024000E+03  1.508005E+02  3.459956E-17  3.251078E-01    1 
 5.000000E-01  5.000000E-01  1.485000E+02  3.657448E+01  1.555887E+07  1.556255E+07  9.933792E-01  6.620818E-03  0.000000E+00  1.024000E+03  1.507339E+02  3.460542E-17  3.253678E-01    1 
 5.000000E-01  5.000000E-01  1.495000E+02  3.653397E+01  1.554882E+07  1.555253E+07  9.933235E-01  6.676492E-03  0.000000E+00  1.024000E+03  1.506673E+02  3.461129E-17  3.256280E-01    1 
 5.000000E-01  5.000000E-01  1.505000E+02  3.649347E+01  1.553878E+07  1.554252E+07  9.932673E-01  6.732715E-03  0.000000E+00  1.024000E+03  1.506007E+02  3.461717E-17  3.258884E-01    1 
 5.000000E-01  5.000000E-01  1.515000E+02  3.645296E+01  1.552874E+07  1.553250E+07  9.932105E-01  6.789530E-03  0.000000E+00  1.024000E+03  1.505341E+02  3.462306E-17  3.261490E-01    1 
 5.000000E-01  5.000000E-01  1.525000E+02  3.641247E+01  1.551869E+07  1.552249E+07  9.931530E-01  6.846982E-03  0.000000E+00  1.024000E+03  1.504674E+02  3.462894E-17  3.264098E-01    1 
 5.000000E-01  5.000000E-01  1.535000E+02  3.637197E+01  1.550865E+07  1.551247E+07  9.930949E-01  6.905116E-03  0.000000E+00  1.024000E+03  1.504007E+02  3.463484E-17  3.266708E-01    1 
 5.000000E-01  5.000000E-01  1.545000E+02  3.633148E+01  1.549860E+07  1.550246E+07  9.930360E-01  6.963977E-03  0.000000E+00  1.024000E+03  1.503340E+02  3.464074E-17  3.269320E-01    1 
 5.000000E-01  5.000000E-01  1.555000E+02  3.629099E+01  1.548856E+07  1.549244E+07  9.929764E-01  7.023609E-03  0.000000E+00  1.024000E+03  1.502672E+02  3.464665E-17  3.271935E-01    1 
 5.000000E-01  5.000000E-01  1.565000E+02  3.625050E+01  1.547851E+07  1.548243E+07  9.929159E-01  7.084051E-03  0.000000E+00  1.024000E+03  1.502005E+02  3.465256E-17  3.274551E-01    1 