TITLE = "  1.18100E+05 [y]"
VARIABLES="X [m]","Y [m]","Z [m]","Temperature [C]","Liquid Pressure [Pa]","Gas Pressure [Pa]","Liquid Saturation","Gas Saturation","Hydrate Saturation","Liquid Density [kg/m^3]","Gas Density [kg/m^3]","Permeability X [m^2]","Porosity","Material ID"
ZONE T="1.18100E+05", STRANDID=1, SOLUTIONTIME=1.18100E+05, I=1, J=1, K=1000, DATAPACKING=POINT
 5.000000E-01  5.000000E-01  5.000000E-01  4.129359E+01  1.793971E+07  1.794565E+07  9.885097E-01  1.149033E-02  0.000000E+00  1.024000E+03  1.680432E+02  3.379583E-17  2.890648E-01    1 
 5.000000E-01  5.000000E-01  1.500000E+00  4.125252E+01  1.792968E+07  1.793564E+07  9.884495E-01  1.155045E-02  0.000000E+00  1.024000E+03  1.679825E+02  3.380093E-17  2.892959E-01    1 
 5.000000E-01  5.000000E-01  2.500000E+00  4.121146E+01  1.791964E+07  1.792563E+07  9.883937E-01  1.160626E-02  0.000000E+00  1.024000E+03  1.679218E+02  3.380603E-17  2.895273E-01    1 
 5.000000E-01  5.000000E-01  3.500000E+00  4.117040E+01  1.790961E+07  1.791562E+07  9.883379E-01  1.166209E-02  0.000000E+00  1.024000E+03  1.678610E+02  3.381113E-17  2.897588E-01    1 
 5.000000E-01  5.000000E-01  4.500000E+00  4.112935E+01  1.789957E+07  1.790561E+07  9.882820E-01  1.171798E-02  0.000000E+00  1.024000E+03  1.678002E+02  3.381624E-17  2.899905E-01    1 
 5.000000E-01  5.000000E-01  5.500000E+00  4.108831E+01  1.788954E+07  1.789560E+07  9.882261E-01  1.177395E-02  0.000000E+00  1.024000E+03  1.677394E+02  3.382135E-17  2.902224E-01    1 
 5.000000E-01  5.000000E-01  6.500000E+00  4.104728E+01  1.787950E+07  1.788558E+07  9.881700E-01  1.183002E-02  0.000000E+00  1.024000E+03  1.676786E+02  3.382647E-17  2.904545E-01    1 
 5.000000E-01  5.000000E-01  7.500000E+00  4.100624E+01  1.786947E+07  1.787557E+07  9.881138E-01  1.188623E-02  0.000000E+00  1.024000E+03  1.676177E+02  3.383160E-17  2.906868E-01    1 
 5.000000E-01  5.000000E-01  8.500000E+00  4.096522E+01  1.785943E+07  1.786556E+07  9.880574E-01  1.194257E-02  0.000000E+00  1.024000E+03  1.675568E+02  3.383673E-17  2.909192E-01    1 
 5.000000E-01  5.000000E-01  9.500000E+00  4.092420E+01  1.784940E+07  1.785555E+07  9.880009E-01  1.199909E-02  0.000000E+00  1.024000E+03  1.674959E+02  3.384186E-17  2.911519E-01    1 
 5.000000E-01  5.000000E-01  1.050000E+01  4.088319E+01  1.783936E+07  1.784554E+07  9.879442E-01  1.205579E-02  0.000000E+00  1.024000E+03  1.674349E+02  3.384700E-17  2.913847E-01    1 
 5.000000E-01  5.000000E-01  1.150000E+01  4.084219E+01  1.782932E+07  1.783552E+07  9.878873E-01  1.211270E-02  0.000000E+00  1.024000E+03  1.673739E+02  3.385214E-17  2.916177E-01    1 
 5.000000E-01  5.000000E-01  1.250000E+01  4.080119E+01  1.781929E+07  1.782551E+07  9.878302E-01  1.216984E-02  0.000000E+00  1.024000E+03  1.673129E+02  3.385729E-17  2.918509E-01    1 
 5.000000E-01  5.000000E-01  1.350000E+01  4.076019E+01  1.780925E+07  1.781550E+07  9.877728E-01  1.222722E-02  0.000000E+00  1.024000E+03  1.672519E+02  3.386244E-17  2.920843E-01    1 
 5.000000E-01  5.000000E-01  1.450000E+01  4.071921E+01  1.779922E+07  1.780549E+07  9.877151E-01  1.228486E-02  0.000000E+00  1.024000E+03  1.671908E+02  3.386760E-17  2.923179E-01    1 
 5.000000E-01  5.000000E-01  1.550000E+01  4.067823E+01  1.778918E+07  1.779548E+07  9.876572E-01  1.234278E-02  0.000000E+00  1.024000E+03  1.671297E+02  3.387276E-17  2.925516E-01    1 
 5.000000E-01  5.000000E-01  1.650000E+01  4.063725E+01  1.777914E+07  1.778546E+07  9.875990E-01  1.240099E-02  0.000000E+00  1.024000E+03  1.670686E+02  3.387793E-17  2.927856E-01    1 
 5.000000E-01  5.000000E-01  1.750000E+01  4.059629E+01  1.776911E+07  1.777545E+07  9.875405E-01  1.245950E-02  0.000000E+00  1.024000E+03  1.670075E+02  3.388310E-17  2.930197E-01    1 
 5.000000E-01  5.000000E-01  1.850000E+01  4.055532E+01  1.775907E+07  1.776544E+07  9.874817E-01  1.251833E-02  0.000000E+00  1.024000E+03  1.669463E+02  3.388828E-17  2.932541E-01    1 
 5.000000E-01  5.000000E-01  1.950000E+01  4.051437E+01  1.774904E+07  1.775543E+07  9.874225E-01  1.257749E-02  0.000000E+00  1.024000E+03  1.668851E+02  3.389346E-17  2.934886E-01    1 
 5.000000E-01  5.000000E-01  2.050000E+01  4.047342E+01  1.773900E+07  1.774542E+07  9.873630E-01  1.263698E-02  0.000000E+00  1.024000E+03  1.668239E+02  3.389865E-17  2.937233E-01    1 
 5.000000E-01  5.000000E-01  2.150000E+01  4.043248E+01  1.772896E+07  1.773540E+07  9.873032E-01  1.269682E-02  0.000000E+00  1.024000E+03  1.667627E+02  3.390384E-17  2.939581E-01    1 
 5.000000E-01  5.000000E-01  2.250000E+01  4.039154E+01  1.771893E+07  1.772539E+07  9.872430E-01  1.275701E-02  0.000000E+00  1.024000E+03  1.667014E+02  3.390904E-17  2.941932E-01    1 
 5.000000E-01  5.000000E-01  2.350000E+01  4.035061E+01  1.770889E+07  1.771538E+07  9.871824E-01  1.281755E-02  0.000000E+00  1.024000E+03  1.666401E+02  3.391424E-17  2.944285E-01    1 
 5.000000E-01  5.000000E-01  2.450000E+01  4.030969E+01  1.769886E+07  1.770537E+07  9.871215E-01  1.287845E-02  0.000000E+00  1.024000E+03  1.665788E+02  3.391945E-17  2.946639E-01    1 
 5.000000E-01  5.000000E-01  2.550000E+01  4.026877E+01  1.768882E+07  1.769536E+07  9.870603E-01  1.293971E-02  0.000000E+00  1.024000E+03  1.665174E+02  3.392466E-17  2.948996E-01    1 
 5.000000E-01  5.000000E-01  2.650000E+01  4.022786E+01  1.767878E+07  1.768535E+07  9.869987E-01  1.300132E-02  0.000000E+00  1.024000E+03  1.664560E+02  3.392988E-17  2.951354E-01    1 
 5.000000E-01  5.000000E-01  2.750000E+01  4.018695E+01  1.766875E+07  1.767533E+07  9.869367E-01  1.306328E-02  0.000000E+00  1.024000E+03  1.663946E+02  3.393510E-17  2.953714E-01    1 
 5.000000E-01  5.000000E-01  2.850000E+01  4.014605E+01  1.765871E+07  1.766532E+07  9.868744E-01  1.312558E-02  0.000000E+00  1.024000E+03  1.663332E+02  3.394033E-17  2.956076E-01    1 
 5.000000E-01  5.000000E-01  2.950000E+01  4.010516E+01  1.764867E+07  1.765531E+07  9.868118E-01  1.318822E-02  0.000000E+00  1.024000E+03  1.662717E+02  3.394556E-17  2.958440E-01    1 
 5.000000E-01  5.000000E-01  3.050000E+01  4.006427E+01  1.763864E+07  1.764530E+07  9.867488E-01  1.325119E-02  0.000000E+00  1.024000E+03  1.662102E+02  3.395080E-17  2.960806E-01    1 
 5.000000E-01  5.000000E-01  3.150000E+01  4.002339E+01  1.762860E+07  1.763529E+07  9.866855E-01  1.331448E-02  0.000000E+00  1.024000E+03  1.661487E+02  3.395604E-17  2.963173E-01    1 
 5.000000E-01  5.000000E-01  3.250000E+01  3.998252E+01  1.761856E+07  1.762528E+07  9.866219E-01  1.337807E-02  0.000000E+00  1.024000E+03  1.660872E+02  3.396129E-17  2.965543E-01    1 
 5.000000E-01  5.000000E-01  3.350000E+01  3.994165E+01  1.760853E+07  1.761526E+07  9.865581E-01  1.344194E-02  0.000000E+00  1.024000E+03  1.660256E+02  3.396654E-17  2.967915E-01    1 
 5.000000E-01  5.000000E-01  3.450000E+01  3.990079E+01  1.759849E+07  1.760525E+07  9.864939E-01  1.350608E-02  0.000000E+00  1.024000E+03  1.659640E+02  3.397180E-17  2.970288E-01    1 
 5.000000E-01  5.000000E-01  3.550000E+01  3.985994E+01  1.758845E+07  1.759524E+07  9.864295E-01  1.357048E-02  0.000000E+00  1.024000E+03  1.659024E+02  3.397706E-17  2.972663E-01    1 
 5.000000E-01  5.000000E-01  3.650000E+01  3.981909E+01  1.757842E+07  1.758523E+07  9.863649E-01  1.363510E-02  0.000000E+00  1.024000E+03  1.658407E+02  3.398233E-17  2.975040E-01    1 
 5.000000E-01  5.000000E-01  3.750000E+01  3.977824E+01  1.756838E+07  1.757522E+07  9.863001E-01  1.369993E-02  0.000000E+00  1.024000E+03  1.657791E+02  3.398760E-17  2.977419E-01    1 
 5.000000E-01  5.000000E-01  3.850000E+01  3.973741E+01  1.755834E+07  1.756521E+07  9.862351E-01  1.376494E-02  0.000000E+00  1.024000E+03  1.657174E+02  3.399288E-17  2.979800E-01    1 
 5.000000E-01  5.000000E-01  3.950000E+01  3.969658E+01  1.754831E+07  1.755519E+07  9.861699E-01  1.383011E-02  0.000000E+00  1.024000E+03  1.656556E+02  3.399816E-17  2.982183E-01    1 
 5.000000E-01  5.000000E-01  4.050000E+01  3.965575E+01  1.753827E+07  1.754518E+07  9.861046E-01  1.389541E-02  0.000000E+00  1.024000E+03  1.655939E+02  3.400345E-17  2.984568E-01    1 
 5.000000E-01  5.000000E-01  4.150000E+01  3.961494E+01  1.752823E+07  1.753517E+07  9.860392E-01  1.396082E-02  0.000000E+00  1.024000E+03  1.655321E+02  3.400874E-17  2.986955E-01    1 
 5.000000E-01  5.000000E-01  4.250000E+01  3.957413E+01  1.751819E+07  1.752516E+07  9.859737E-01  1.402631E-02  0.000000E+00  1.024000E+03  1.654703E+02  3.401404E-17  2.989343E-01    1 
 5.000000E-01  5.000000E-01  4.350000E+01  3.953332E+01  1.750816E+07  1.751515E+07  9.859081E-01  1.409185E-02  0.000000E+00  1.024000E+03  1.654084E+02  3.401934E-17  2.991734E-01    1 
 5.000000E-01  5.000000E-01  4.450000E+01  3.949252E+01  1.749812E+07  1.750513E+07  9.858426E-01  1.415742E-02  0.000000E+00  1.024000E+03  1.653465E+02  3.402465E-17  2.994126E-01    1 
 5.000000E-01  5.000000E-01  4.550000E+01  3.945173E+01  1.748808E+07  1.749512E+07  9.857770E-01  1.422299E-02  0.000000E+00  1.024000E+03  1.652846E+02  3.402996E-17  2.996521E-01    1 
 5.000000E-01  5.000000E-01  4.650000E+01  3.941095E+01  1.747805E+07  1.748511E+07  9.857115E-01  1.428854E-02  0.000000E+00  1.024000E+03  1.652227E+02  3.403528E-17  2.998917E-01    1 
 5.000000E-01  5.000000E-01  4.750000E+01  3.937017E+01  1.746801E+07  1.747510E+07  9.856460E-01  1.435404E-02  0.000000E+00  1.024000E+03  1.651608E+02  3.404060E-17  3.001315E-01    1 
 5.000000E-01  5.000000E-01  4.850000E+01  3.932939E+01  1.745797E+07  1.746508E+07  9.855805E-01  1.441946E-02  0.000000E+00  1.024000E+03  1.650988E+02  3.404593E-17  3.003715E-01    1 
 5.000000E-01  5.000000E-01  4.950000E+01  3.928863E+01  1.744793E+07  1.745507E+07  9.855152E-01  1.448479E-02  0.000000E+00  1.024000E+03  1.650368E+02  3.405126E-17  3.006117E-01    1 
 5.000000E-01  5.000000E-01  5.050000E+01  3.924786E+01  1.743790E+07  1.744506E+07  9.854500E-01  1.455000E-02  0.000000E+00  1.024000E+03  1.649747E+02  3.405660E-17  3.008521E-01    1 
 5.000000E-01  5.000000E-01  5.150000E+01  3.920711E+01  1.742786E+07  1.743505E+07  9.853849E-01  1.461507E-02  0.000000E+00  1.024000E+03  1.649126E+02  3.406195E-17  3.010927E-01    1 
 5.000000E-01  5.000000E-01  5.250000E+01  3.916636E+01  1.741782E+07  1.742503E+07  9.853200E-01  1.467999E-02  0.000000E+00  1.024000E+03  1.648505E+02  3.406729E-17  3.013335E-01    1 
 5.000000E-01  5.000000E-01  5.350000E+01  3.912562E+01  1.740778E+07  1.741502E+07  9.852553E-01  1.474473E-02  0.000000E+00  1.024000E+03  1.647884E+02  3.407265E-17  3.015744E-01    1 
 5.000000E-01  5.000000E-01  5.450000E+01  3.908489E+01  1.739774E+07  1.740500E+07  9.851907E-01  1.480929E-02  0.000000E+00  1.024000E+03  1.647262E+02  3.407801E-17  3.018156E-01    1 
 5.000000E-01  5.000000E-01  5.550000E+01  3.904416E+01  1.738771E+07  1.739499E+07  9.851264E-01  1.487365E-02  0.000000E+00  1.024000E+03  1.646641E+02  3.408337E-17  3.020570E-01    1 
 5.000000E-01  5.000000E-01  5.650000E+01  3.900343E+01  1.737767E+07  1.738498E+07  9.850622E-01  1.493779E-02  0.000000E+00  1.024000E+03  1.646018E+02  3.408874E-17  3.022985E-01    1 
 5.000000E-01  5.000000E-01  5.750000E+01  3.896272E+01  1.736763E+07  1.737496E+07  9.849983E-01  1.500171E-02  0.000000E+00  1.024000E+03  1.645396E+02  3.409411E-17  3.025403E-01    1 
 5.000000E-01  5.000000E-01  5.850000E+01  3.892201E+01  1.735759E+07  1.736495E+07  9.849346E-01  1.506541E-02  0.000000E+00  1.024000E+03  1.644773E+02  3.409949E-17  3.027822E-01    1 
 5.000000E-01  5.000000E-01  5.950000E+01  3.888130E+01  1.734755E+07  1.735493E+07  9.848711E-01  1.512887E-02  0.000000E+00  1.024000E+03  1.644150E+02  3.410488E-17  3.030243E-01    1 
 5.000000E-01  5.000000E-01  6.050000E+01  3.884061E+01  1.733752E+07  1.734492E+07  9.848079E-01  1.519209E-02  0.000000E+00  1.024000E+03  1.643527E+02  3.411027E-17  3.032666E-01    1 
 5.000000E-01  5.000000E-01  6.150000E+01  3.879992E+01  1.732748E+07  1.733490E+07  9.847449E-01  1.525507E-02  0.000000E+00  1.024000E+03  1.642903E+02  3.411566E-17  3.035092E-01    1 
 5.000000E-01  5.000000E-01  6.250000E+01  3.875923E+01  1.731744E+07  1.732489E+07  9.846822E-01  1.531781E-02  0.000000E+00  1.024000E+03  1.642279E+02  3.412106E-17  3.037519E-01    1 
 5.000000E-01  5.000000E-01  6.350000E+01  3.871855E+01  1.730740E+07  1.731487E+07  9.846197E-01  1.538031E-02  0.000000E+00  1.024000E+03  1.641655E+02  3.412647E-17  3.039948E-01    1 
 5.000000E-01  5.000000E-01  6.450000E+01  3.867788E+01  1.729736E+07  1.730486E+07  9.845574E-01  1.544257E-02  0.000000E+00  1.024000E+03  1.641030E+02  3.413188E-17  3.042379E-01    1 
 5.000000E-01  5.000000E-01  6.550000E+01  3.863722E+01  1.728733E+07  1.729484E+07  9.844954E-01  1.550460E-02  0.000000E+00  1.024000E+03  1.640406E+02  3.413729E-17  3.044812E-01    1 
 5.000000E-01  5.000000E-01  6.650000E+01  3.859656E+01  1.727729E+07  1.728482E+07  9.844336E-01  1.556640E-02  0.000000E+00  1.024000E+03  1.639781E+02  3.414271E-17  3.047247E-01    1 
 5.000000E-01  5.000000E-01  6.750000E+01  3.855591E+01  1.726725E+07  1.727481E+07  9.843720E-01  1.562798E-02  0.000000E+00  1.024000E+03  1.639155E+02  3.414814E-17  3.049683E-01    1 
 5.000000E-01  5.000000E-01  6.850000E+01  3.851526E+01  1.725721E+07  1.726479E+07  9.843107E-01  1.568935E-02  0.000000E+00  1.024000E+03  1.638529E+02  3.415357E-17  3.052122E-01    1 
 5.000000E-01  5.000000E-01  6.950000E+01  3.847462E+01  1.724717E+07  1.725477E+07  9.842495E-01  1.575050E-02  0.000000E+00  1.024000E+03  1.637904E+02  3.415901E-17  3.054563E-01    1 
 5.000000E-01  5.000000E-01  7.050000E+01  3.843399E+01  1.723713E+07  1.724476E+07  9.841885E-01  1.581146E-02  0.000000E+00  1.024000E+03  1.637277E+02  3.416445E-17  3.057006E-01    1 
 5.000000E-01  5.000000E-01  7.150000E+01  3.839336E+01  1.722709E+07  1.723474E+07  9.841278E-01  1.587223E-02  0.000000E+00  1.024000E+03  1.636651E+02  3.416989E-17  3.059450E-01    1 
 5.000000E-01  5.000000E-01  7.250000E+01  3.835274E+01  1.721705E+07  1.722472E+07  9.840672E-01  1.593281E-02  0.000000E+00  1.024000E+03  1.636024E+02  3.417535E-17  3.061897E-01    1 
 5.000000E-01  5.000000E-01  7.350000E+01  3.831213E+01  1.720702E+07  1.721470E+07  9.840068E-01  1.599323E-02  0.000000E+00  1.024000E+03  1.635397E+02  3.418080E-17  3.064345E-01    1 
 5.000000E-01  5.000000E-01  7.450000E+01  3.827152E+01  1.719698E+07  1.720469E+07  9.839465E-01  1.605348E-02  0.000000E+00  1.024000E+03  1.634769E+02  3.418627E-17  3.066796E-01    1 
 5.000000E-01  5.000000E-01  7.550000E+01  3.823092E+01  1.718694E+07  1.719467E+07  9.838864E-01  1.611358E-02  0.000000E+00  1.024000E+03  1.634142E+02  3.419173E-17  3.069248E-01    1 
 5.000000E-01  5.000000E-01  7.650000E+01  3.819032E+01  1.717690E+07  1.718465E+07  9.838265E-01  1.617354E-02  0.000000E+00  1.024000E+03  1.633514E+02  3.419721E-17  3.071703E-01    1 
 5.000000E-01  5.000000E-01  7.750000E+01  3.814973E+01  1.716686E+07  1.717463E+07  9.837666E-01  1.623338E-02  0.000000E+00  1.024000E+03  1.632885E+02  3.420268E-17  3.074159E-01    1 
 5.000000E-01  5.000000E-01  7.850000E+01  3.810915E+01  1.715682E+07  1.716461E+07  9.837069E-01  1.629309E-02  0.000000E+00  1.024000E+03  1.632257E+02  3.420817E-17  3.076617E-01    1 
 5.000000E-01  5.000000E-01  7.950000E+01  3.806858E+01  1.714678E+07  1.715460E+07  9.836473E-01  1.635269E-02  0.000000E+00  1.024000E+03  1.631628E+02  3.421366E-17  3.079078E-01    1 
 5.000000E-01  5.000000E-01  8.050000E+01  3.802801E+01  1.713674E+07  1.714458E+07  9.835878E-01  1.641219E-02  0.000000E+00  1.024000E+03  1.630999E+02  3.421915E-17  3.081540E-01    1 
 5.000000E-01  5.000000E-01  8.150000E+01  3.798745E+01  1.712670E+07  1.713456E+07  9.835284E-01  1.647161E-02  0.000000E+00  1.024000E+03  1.630369E+02  3.422465E-17  3.084004E-01    1 
 5.000000E-01  5.000000E-01  8.250000E+01  3.794689E+01  1.711666E+07  1.712454E+07  9.834691E-01  1.653094E-02  0.000000E+00  1.024000E+03  1.629739E+02  3.423015E-17  3.086470E-01    1 
 5.000000E-01  5.000000E-01  8.350000E+01  3.790634E+01  1.710662E+07  1.711452E+07  9.834098E-01  1.659020E-02  0.000000E+00  1.024000E+03  1.629109E+02  3.423566E-17  3.088939E-01    1 
 5.000000E-01  5.000000E-01  8.450000E+01  3.786580E+01  1.709659E+07  1.710450E+07  9.833506E-01  1.664940E-02  0.000000E+00  1.024000E+03  1.628479E+02  3.424118E-17  3.091409E-01    1 
 5.000000E-01  5.000000E-01  8.550000E+01  3.782526E+01  1.708655E+07  1.709448E+07  9.832915E-01  1.670855E-02  0.000000E+00  1.024000E+03  1.627848E+02  3.424670E-17  3.093881E-01    1 
 5.000000E-01  5.000000E-01  8.650000E+01  3.778473E+01  1.707651E+07  1.708446E+07  9.832324E-01  1.676765E-02  0.000000E+00  1.024000E+03  1.627217E+02  3.425222E-17  3.096355E-01    1 
 5.000000E-01  5.000000E-01  8.750000E+01  3.774421E+01  1.706647E+07  1.707444E+07  9.831733E-01  1.682671E-02  0.000000E+00  1.024000E+03  1.626586E+02  3.425775E-17  3.098831E-01    1 
 5.000000E-01  5.000000E-01  8.850000E+01  3.770369E+01  1.705643E+07  1.706442E+07  9.831143E-01  1.688575E-02  0.000000E+00  1.024000E+03  1.625955E+02  3.426329E-17  3.101309E-01    1 
 5.000000E-01  5.000000E-01  8.950000E+01  3.766318E+01  1.704639E+07  1.705440E+07  9.830552E-01  1.694476E-02  0.000000E+00  1.024000E+03  1.625323E+02  3.426883E-17  3.103789E-01    1 
 5.000000E-01  5.000000E-01  9.050000E+01  3.762268E+01  1.703635E+07  1.704438E+07  9.829962E-01  1.700376E-02  0.000000E+00  1.024000E+03  1.624691E+02  3.427438E-17  3.106271E-01    1 
 5.000000E-01  5.000000E-01  9.150000E+01  3.758218E+01  1.702631E+07  1.703436E+07  9.829372E-01  1.706275E-02  0.000000E+00  1.024000E+03  1.624059E+02  3.427993E-17  3.108755E-01    1 
 5.000000E-01  5.000000E-01  9.250000E+01  3.754169E+01  1.701627E+07  1.702434E+07  9.828783E-01  1.712174E-02  0.000000E+00  1.024000E+03  1.623426E+02  3.428549E-17  3.111241E-01    1 
 5.000000E-01  5.000000E-01  9.350000E+01  3.750121E+01  1.700623E+07  1.701432E+07  9.828193E-01  1.718073E-02  0.000000E+00  1.024000E+03  1.622793E+02  3.429105E-17  3.113729E-01    1 
 5.000000E-01  5.000000E-01  9.450000E+01  3.746073E+01  1.699619E+07  1.700430E+07  9.827603E-01  1.723974E-02  0.000000E+00  1.024000E+03  1.622160E+02  3.429662E-17  3.116219E-01    1 
 5.000000E-01  5.000000E-01  9.550000E+01  3.742026E+01  1.698615E+07  1.699428E+07  9.827012E-01  1.729875E-02  0.000000E+00  1.024000E+03  1.621526E+02  3.430219E-17  3.118711E-01    1 
 5.000000E-01  5.000000E-01  9.650000E+01  3.737980E+01  1.697611E+07  1.698426E+07  9.826422E-01  1.735779E-02  0.000000E+00  1.024000E+03  1.620892E+02  3.430777E-17  3.121205E-01    1 
 5.000000E-01  5.000000E-01  9.750000E+01  3.733934E+01  1.696607E+07  1.697424E+07  9.825831E-01  1.741685E-02  0.000000E+00  1.024000E+03  1.620258E+02  3.431336E-17  3.123701E-01    1 
 5.000000E-01  5.000000E-01  9.850000E+01  3.729889E+01  1.695603E+07  1.696422E+07  9.825241E-01  1.747594E-02  0.000000E+00  1.024000E+03  1.619624E+02  3.431895E-17  3.126199E-01    1 
 5.000000E-01  5.000000E-01  9.950000E+01  3.725844E+01  1.694599E+07  1.695420E+07  9.824649E-01  1.753507E-02  0.000000E+00  1.024000E+03  1.618989E+02  3.432454E-17  3.128699E-01    1 
 5.000000E-01  5.000000E-01  1.005000E+02  3.721800E+01  1.693595E+07  1.694418E+07  9.824058E-01  1.759423E-02  0.000000E+00  1.024000E+03  1.618354E+02  3.433014E-17  3.131201E-01    1 
 5.000000E-01  5.000000E-01  1.015000E+02  3.717757E+01  1.692591E+07  1.693416E+07  9.823466E-01  1.765343E-02  0.000000E+00  1.024000E+03  1.617719E+02  3.433575E-17  3.133705E-01    1 
 5.000000E-01  5.000000E-01  1.025000E+02  3.713715E+01  1.691587E+07  1.692414E+07  9.822873E-01  1.771267E-02  0.000000E+00  1.024000E+03  1.617083E+02  3.434136E-17  3.136211E-01    1 
 5.000000E-01  5.000000E-01  1.035000E+02  3.709673E+01  1.690582E+07  1.691411E+07  9.822280E-01  1.777197E-02  0.000000E+00  1.024000E+03  1.616448E+02  3.434698E-17  3.138719E-01    1 
 5.000000E-01  5.000000E-01  1.045000E+02  3.705632E+01  1.689578E+07  1.690409E+07  9.821687E-01  1.783131E-02  0.000000E+00  1.024000E+03  1.615811E+02  3.435260E-17  3.141229E-01    1 
 5.000000E-01  5.000000E-01  1.055000E+02  3.701591E+01  1.688574E+07  1.689407E+07  9.821093E-01  1.789070E-02  0.000000E+00  1.024000E+03  1.615175E+02  3.435823E-17  3.143741E-01    1 
 5.000000E-01  5.000000E-01  1.065000E+02  3.697552E+01  1.687570E+07  1.688405E+07  9.820498E-01  1.795015E-02  0.000000E+00  1.024000E+03  1.614538E+02  3.436386E-17  3.146255E-01    1 
 5.000000E-01  5.000000E-01  1.075000E+02  3.693512E+01  1.686566E+07  1.687403E+07  9.819903E-01  1.800966E-02  0.000000E+00  1.024000E+03  1.613901E+02  3.436950E-17  3.148771E-01    1 
 5.000000E-01  5.000000E-01  1.085000E+02  3.689474E+01  1.685562E+07  1.686401E+07  9.819308E-01  1.806923E-02  0.000000E+00  1.024000E+03  1.613264E+02  3.437514E-17  3.151289E-01    1 
 5.000000E-01  5.000000E-01  1.095000E+02  3.685436E+01  1.684558E+07  1.685398E+07  9.818711E-01  1.812886E-02  0.000000E+00  1.024000E+03  1.612626E+02  3.438079E-17  3.153809E-01    1 
 5.000000E-01  5.000000E-01  1.105000E+02  3.681399E+01  1.683554E+07  1.684396E+07  9.818114E-01  1.818856E-02  0.000000E+00  1.024000E+03  1.611988E+02  3.438645E-17  3.156331E-01    1 
 5.000000E-01  5.000000E-01  1.115000E+02  3.677362E+01  1.682550E+07  1.683394E+07  9.817517E-01  1.824832E-02  0.000000E+00  1.024000E+03  1.611350E+02  3.439211E-17  3.158855E-01    1 
 5.000000E-01  5.000000E-01  1.125000E+02  3.673326E+01  1.681546E+07  1.682392E+07  9.816918E-01  1.830815E-02  0.000000E+00  1.024000E+03  1.610712E+02  3.439777E-17  3.161381E-01    1 
 5.000000E-01  5.000000E-01  1.135000E+02  3.669291E+01  1.680542E+07  1.681390E+07  9.816319E-01  1.836806E-02  0.000000E+00  1.024000E+03  1.610073E+02  3.440344E-17  3.163909E-01    1 
 5.000000E-01  5.000000E-01  1.145000E+02  3.665257E+01  1.679537E+07  1.680387E+07  9.815720E-01  1.842803E-02  0.000000E+00  1.024000E+03  1.609434E+02  3.440912E-17  3.166439E-01    1 
 5.000000E-01  5.000000E-01  1.155000E+02  3.661223E+01  1.678533E+07  1.679385E+07  9.815119E-01  1.848809E-02  0.000000E+00  1.024000E+03  1.608795E+02  3.441480E-17  3.168971E-01    1 
 5.000000E-01  5.000000E-01  1.165000E+02  3.657190E+01  1.677529E+07  1.678383E+07  9.814518E-01  1.854822E-02  0.000000E+00  1.024000E+03  1.608155E+02  3.442049E-17  3.171506E-01    1 
 5.000000E-01  5.000000E-01  1.175000E+02  3.653157E+01  1.676525E+07  1.677381E+07  9.813916E-01  1.860844E-02  0.000000E+00  1.024000E+03  1.607515E+02  3.442618E-17  3.174042E-01    1 
 5.000000E-01  5.000000E-01  1.185000E+02  3.649125E+01  1.675521E+07  1.676378E+07  9.813313E-01  1.866873E-02  0.000000E+00  1.024000E+03  1.606875E+02  3.443188E-17  3.176580E-01    1 
 5.000000E-01  5.000000E-01  1.195000E+02  3.645094E+01  1.674517E+07  1.675376E+07  9.812709E-01  1.872912E-02  0.000000E+00  1.024000E+03  1.606234E+02  3.443758E-17  3.179120E-01    1 
 5.000000E-01  5.000000E-01  1.205000E+02  3.641064E+01  1.673513E+07  1.674374E+07  9.812104E-01  1.878960E-02  0.000000E+00  1.024000E+03  1.605594E+02  3.444329E-17  3.181663E-01    1 
 5.000000E-01  5.000000E-01  1.215000E+02  3.637034E+01  1.672508E+07  1.673371E+07  9.811498E-01  1.885016E-02  0.000000E+00  1.024000E+03  1.604952E+02  3.444901E-17  3.184207E-01    1 
 5.000000E-01  5.000000E-01  1.225000E+02  3.633005E+01  1.671504E+07  1.672369E+07  9.810892E-01  1.891083E-02  0.000000E+00  1.024000E+03  1.604311E+02  3.445473E-17  3.186753E-01    1 
 5.000000E-01  5.000000E-01  1.235000E+02  3.628976E+01  1.670500E+07  1.671367E+07  9.810284E-01  1.897160E-02  0.000000E+00  1.024000E+03  1.603669E+02  3.446046E-17  3.189302E-01    1 
 5.000000E-01  5.000000E-01  1.245000E+02  3.624948E+01  1.669496E+07  1.670364E+07  9.809675E-01  1.903247E-02  0.000000E+00  1.024000E+03  1.603027E+02  3.446619E-17  3.191852E-01    1 
 5.000000E-01  5.000000E-01  1.255000E+02  3.620921E+01  1.668492E+07  1.669362E+07  9.809065E-01  1.909346E-02  0.000000E+00  1.024000E+03  1.602385E+02  3.447192E-17  3.194405E-01    1 
 5.000000E-01  5.000000E-01  1.265000E+02  3.616895E+01  1.667488E+07  1.668360E+07  9.808454E-01  1.915456E-02  0.000000E+00  1.024000E+03  1.601743E+02  3.447767E-17  3.196959E-01    1 
 5.000000E-01  5.000000E-01  1.275000E+02  3.612869E+01  1.666483E+07  1.667357E+07  9.807842E-01  1.921578E-02  0.000000E+00  1.024000E+03  1.601100E+02  3.448342E-17  3.199516E-01    1 
 5.000000E-01  5.000000E-01  1.285000E+02  3.608844E+01  1.665479E+07  1.666355E+07  9.807229E-01  1.927713E-02  0.000000E+00  1.024000E+03  1.600457E+02  3.448917E-17  3.202074E-01    1 
 5.000000E-01  5.000000E-01  1.295000E+02  3.604819E+01  1.664475E+07  1.665353E+07  9.806614E-01  1.933862E-02  0.000000E+00  1.024000E+03  1.599813E+02  3.449493E-17  3.204635E-01    1 
 5.000000E-01  5.000000E-01  1.305000E+02  3.600796E+01  1.663471E+07  1.664350E+07  9.805998E-01  1.940025E-02  0.000000E+00  1.024000E+03  1.599169E+02  3.450069E-17  3.207197E-01    1 
 5.000000E-01  5.000000E-01  1.315000E+02  3.596773E+01  1.662466E+07  1.663348E+07  9.805380E-01  1.946202E-02  0.000000E+00  1.024000E+03  1.598525E+02  3.450646E-17  3.209762E-01    1 
 5.000000E-01  5.000000E-01  1.325000E+02  3.592750E+01  1.661462E+07  1.662345E+07  9.804760E-01  1.952396E-02  0.000000E+00  1.024000E+03  1.597881E+02  3.451224E-17  3.212329E-01    1 
 5.000000E-01  5.000000E-01  1.335000E+02  3.588728E+01  1.660458E+07  1.661343E+07  9.804139E-01  1.958607E-02  0.000000E+00  1.024000E+03  1.597236E+02  3.451802E-17  3.214898E-01    1 
 5.000000E-01  5.000000E-01  1.345000E+02  3.584707E+01  1.659454E+07  1.660341E+07  9.803516E-01  1.964835E-02  0.000000E+00  1.024000E+03  1.596592E+02  3.452381E-17  3.217469E-01    1 
 5.000000E-01  5.000000E-01  1.355000E+02  3.580687E+01  1.658450E+07  1.659338E+07  9.802892E-01  1.971083E-02  0.000000E+00  1.024000E+03  1.595946E+02  3.452960E-17  3.220042E-01    1 
 5.000000E-01  5.000000E-01  1.365000E+02  3.576667E+01  1.657445E+07  1.658336E+07  9.802265E-01  1.977350E-02  0.000000E+00  1.024000E+03  1.595301E+02  3.453540E-17  3.222617E-01    1 
 5.000000E-01  5.000000E-01  1.375000E+02  3.572648E+01  1.656441E+07  1.657333E+07  9.801636E-01  1.983640E-02  0.000000E+00  1.024000E+03  1.594655E+02  3.454121E-17  3.225194E-01    1 
 5.000000E-01  5.000000E-01  1.385000E+02  3.568630E+01  1.655437E+07  1.656331E+07  9.801005E-01  1.989952E-02  0.000000E+00  1.024000E+03  1.594009E+02  3.454701E-17  3.227773E-01    1 
 5.000000E-01  5.000000E-01  1.395000E+02  3.564612E+01  1.654432E+07  1.655328E+07  9.800371E-01  1.996289E-02  0.000000E+00  1.024000E+03  1.593363E+02  3.455283E-17  3.230354E-01    1 
 5.000000E-01  5.000000E-01  1.405000E+02  3.560595E+01  1.653428E+07  1.654326E+07  9.799735E-01  2.002652E-02  0.000000E+00  1.024000E+03  1.592716E+02  3.455865E-17  3.232937E-01    1 
 5.000000E-01  5.000000E-01  1.415000E+02  3.556579E+01  1.652424E+07  1.653323E+07  9.799096E-01  2.009044E-02  0.000000E+00  1.024000E+03  1.592069E+02  3.456448E-17  3.235523E-01    1 
 5.000000E-01  5.000000E-01  1.425000E+02  3.552563E+01  1.651420E+07  1.652321E+07  9.798454E-01  2.015465E-02  0.000000E+00  1.024000E+03  1.591422E+02  3.457031E-17  3.238110E-01    1 
 5.000000E-01  5.000000E-01  1.435000E+02  3.548548E+01  1.650415E+07  1.651319E+07  9.797808E-01  2.021917E-02  0.000000E+00  1.024000E+03  1.590774E+02  3.457615E-17  3.240699E-01    1 
 5.000000E-01  5.000000E-01  1.445000E+02  3.544534E+01  1.649411E+07  1.650316E+07  9.797160E-01  2.028404E-02  0.000000E+00  1.024000E+03  1.590126E+02  3.458199E-17  3.243291E-01    1 
 5.000000E-01  5.000000E-01  1.455000E+02  3.540521E+01  1.648407E+07  1.649314E+07  9.796507E-01  2.034927E-02  0.000000E+00  1.024000E+03  1.589478E+02  3.458784E-17  3.245885E-01    1 
 5.000000E-01  5.000000E-01  1.465000E+02  3.536508E+01  1.647402E+07  1.648311E+07  9.795851E-01  2.041488E-02  0.000000E+00  1.024000E+03  1.588830E+02  3.459370E-17  3.248480E-01    1 
 5.000000E-01  5.000000E-01  1.475000E+02  3.532496E+01  1.646398E+07  1.647309E+07  9.795191E-01  2.048089E-02  0.000000E+00  1.024000E+03  1.588181E+02  3.459956E-17  3.251078E-01    1 
 5.000000E-01  5.000000E-01  1.485000E+02  3.528484E+01  1.645394E+07  1.646306E+07  9.794527E-01  2.054734E-02  0.000000E+00  1.024000E+03  1.587532E+02  3.460542E-17  3.253678E-01    1 
 5.000000E-01  5.000000E-01  1.495000E+02  3.524473E+01  1.644389E+07  1.645304E+07  9.793858E-01  2.061425E-02  0.000000E+00  1.024000E+03  1.586883E+02  3.461129E-17  3.256280E-01    1 
 5.000000E-01  5.000000E-01  1.505000E+02  3.520463E+01  1.643385E+07  1.644301E+07  9.793184E-01  2.068164E-02  0.000000E+00  1.024000E+03  1.586233E+02  3.461717E-17  3.258884E-01    1 
 5.000000E-01  5.000000E-01  1.515000E+02  3.516454E+01  1.642380E+07  1.643299E+07  9.792505E-01  2.074954E-02  0.000000E+00  1.024000E+03  1.585583E+02  3.462306E-17  3.261490E-01    1 
 5.000000E-01  5.000000E-01  1.525000E+02  3.512445E+01  1.641376E+07  1.642296E+07  9.791820E-01  2.081797E-02  0.000000E+00  1.024000E+03  1.584933E+02  3.462894E-17  3.264098E-01    1 
 5.000000E-01  5.000000E-01  1.535000E+02  3.508437E+01  1.640372E+07  1.641294E+07  9.791130E-01  2.088697E-02  0.000000E+00  1.024000E+03  1.584283E+02  3.463484E-17  3.266708E-01    1 
 5.000000E-01  5.000000E-01  1.545000E+02  3.504430E+01  1.639367E+07  1.640291E+07  9.790434E-01  2.095656E-02  0.000000E+00  1.024000E+03  1.583632E+02  3.464074E-17  3.269320E-01    1 
 5.000000E-01  5.000000E-01  1.555000E+02  3.500423E+01  1.638363E+07  1.639289E+07  9.789732E-01  2.102677E-02  0.000000E+00  1.024000E+03  1.582981E+02  3.464665E-17  3.271935E-01    1 
 5.000000E-01  5.000000E-01  1.565000E+02  3.496417E+01  1.637359E+07  1.638286E+07  9.789024E-01  2.109762E-02  0.000000E+00  1.024000E+03  1.582329E+02  3.465256E-17  3.274551E-01    1 