TITLE = "  6.93000E+04 [y]"
VARIABLES="X [m]","Y [m]","Z [m]","Temperature [C]","Liquid Pressure [Pa]","Gas Pressure [Pa]","Liquid Saturation","Gas Saturation","Hydrate Saturation","Liquid Density [kg/m^3]","Gas Density [kg/m^3]","Permeability X [m^2]","Porosity","Material ID"
ZONE T="6.93000E+04", STRANDID=1, SOLUTIONTIME=6.93000E+04, I=1, J=1, K=1000, DATAPACKING=POINT
 5.000000E-01  5.000000E-01  5.000000E-01  4.214233E+01  1.716517E+07  1.716615E+07  9.983639E-01  1.636125E-03  0.000000E+00  1.024000E+03  1.614582E+02  3.379583E-17  2.890648E-01    1 
 5.000000E-01  5.000000E-01  1.500000E+00  4.210132E+01  1.715514E+07  1.715614E+07  9.983136E-01  1.686350E-03  0.000000E+00  1.024000E+03  1.613959E+02  3.380093E-17  2.892959E-01    1 
 5.000000E-01  5.000000E-01  2.500000E+00  4.206030E+01  1.714510E+07  1.714613E+07  9.982728E-01  1.727216E-03  0.000000E+00  1.024000E+03  1.613336E+02  3.380603E-17  2.895273E-01    1 
 5.000000E-01  5.000000E-01  3.500000E+00  4.201929E+01  1.713507E+07  1.713612E+07  9.982313E-01  1.768671E-03  0.000000E+00  1.024000E+03  1.612713E+02  3.381113E-17  2.897588E-01    1 
 5.000000E-01  5.000000E-01  4.500000E+00  4.197828E+01  1.712503E+07  1.712611E+07  9.981893E-01  1.810730E-03  0.000000E+00  1.024000E+03  1.612089E+02  3.381624E-17  2.899905E-01    1 
 5.000000E-01  5.000000E-01  5.500000E+00  4.193727E+01  1.711500E+07  1.711610E+07  9.981466E-01  1.853382E-03  0.000000E+00  1.024000E+03  1.611465E+02  3.382135E-17  2.902224E-01    1 
 5.000000E-01  5.000000E-01  6.500000E+00  4.189627E+01  1.710496E+07  1.710609E+07  9.981034E-01  1.896608E-03  0.000000E+00  1.024000E+03  1.610841E+02  3.382647E-17  2.904545E-01    1 
 5.000000E-01  5.000000E-01  7.500000E+00  4.185526E+01  1.709493E+07  1.709608E+07  9.980596E-01  1.940377E-03  0.000000E+00  1.024000E+03  1.610216E+02  3.383160E-17  2.906868E-01    1 
 5.000000E-01  5.000000E-01  8.500000E+00  4.181426E+01  1.708489E+07  1.708607E+07  9.980153E-01  1.984672E-03  0.000000E+00  1.024000E+03  1.609592E+02  3.383673E-17  2.909192E-01    1 
 5.000000E-01  5.000000E-01  9.500000E+00  4.177326E+01  1.707486E+07  1.707606E+07  9.979705E-01  2.029456E-03  0.000000E+00  1.024000E+03  1.608967E+02  3.384186E-17  2.911519E-01    1 
 5.000000E-01  5.000000E-01  1.050000E+01  4.173227E+01  1.706482E+07  1.706605E+07  9.979253E-01  2.074693E-03  0.000000E+00  1.024000E+03  1.608342E+02  3.384700E-17  2.913847E-01    1 
 5.000000E-01  5.000000E-01  1.150000E+01  4.169127E+01  1.705479E+07  1.705604E+07  9.978797E-01  2.120341E-03  0.000000E+00  1.024000E+03  1.607716E+02  3.385214E-17  2.916177E-01    1 
 5.000000E-01  5.000000E-01  1.250000E+01  4.165028E+01  1.704475E+07  1.704603E+07  9.978336E-01  2.166354E-03  0.000000E+00  1.024000E+03  1.607091E+02  3.385729E-17  2.918509E-01    1 
 5.000000E-01  5.000000E-01  1.350000E+01  4.160929E+01  1.703471E+07  1.703602E+07  9.977873E-01  2.212688E-03  0.000000E+00  1.024000E+03  1.606465E+02  3.386244E-17  2.920843E-01    1 
 5.000000E-01  5.000000E-01  1.450000E+01  4.156830E+01  1.702468E+07  1.702601E+07  9.977407E-01  2.259298E-03  0.000000E+00  1.024000E+03  1.605839E+02  3.386760E-17  2.923179E-01    1 
 5.000000E-01  5.000000E-01  1.550000E+01  4.152731E+01  1.701464E+07  1.701601E+07  9.976939E-01  2.306147E-03  0.000000E+00  1.024000E+03  1.605212E+02  3.387276E-17  2.925516E-01    1 
 5.000000E-01  5.000000E-01  1.650000E+01  4.148633E+01  1.700461E+07  1.700600E+07  9.976468E-01  2.353203E-03  0.000000E+00  1.024000E+03  1.604586E+02  3.387793E-17  2.927856E-01    1 
 5.000000E-01  5.000000E-01  1.750000E+01  4.144535E+01  1.699457E+07  1.699599E+07  9.975996E-01  2.400446E-03  0.000000E+00  1.024000E+03  1.603959E+02  3.388310E-17  2.930197E-01    1 
 5.000000E-01  5.000000E-01  1.850000E+01  4.140437E+01  1.698454E+07  1.698598E+07  9.975521E-01  2.447865E-03  0.000000E+00  1.024000E+03  1.603332E+02  3.388828E-17  2.932541E-01    1 
 5.000000E-01  5.000000E-01  1.950000E+01  4.136339E+01  1.697450E+07  1.697597E+07  9.975045E-01  2.495459E-03  0.000000E+00  1.024000E+03  1.602704E+02  3.389346E-17  2.934886E-01    1 
 5.000000E-01  5.000000E-01  2.050000E+01  4.132241E+01  1.696447E+07  1.696596E+07  9.974568E-01  2.543241E-03  0.000000E+00  1.024000E+03  1.602077E+02  3.389865E-17  2.937233E-01    1 
 5.000000E-01  5.000000E-01  2.150000E+01  4.128144E+01  1.695443E+07  1.695595E+07  9.974088E-01  2.591233E-03  0.000000E+00  1.024000E+03  1.601449E+02  3.390384E-17  2.939581E-01    1 
 5.000000E-01  5.000000E-01  2.250000E+01  4.124047E+01  1.694439E+07  1.694595E+07  9.973605E-01  2.639466E-03  0.000000E+00  1.024000E+03  1.600821E+02  3.390904E-17  2.941932E-01    1 
 5.000000E-01  5.000000E-01  2.350000E+01  4.119950E+01  1.693436E+07  1.693594E+07  9.973120E-01  2.687974E-03  0.000000E+00  1.024000E+03  1.600192E+02  3.391424E-17  2.944285E-01    1 
 5.000000E-01  5.000000E-01  2.450000E+01  4.115853E+01  1.692432E+07  1.692593E+07  9.972632E-01  2.736798E-03  0.000000E+00  1.024000E+03  1.599564E+02  3.391945E-17  2.946639E-01    1 
 5.000000E-01  5.000000E-01  2.550000E+01  4.111757E+01  1.691429E+07  1.691592E+07  9.972140E-01  2.785978E-03  0.000000E+00  1.024000E+03  1.598935E+02  3.392466E-17  2.948996E-01    1 
 5.000000E-01  5.000000E-01  2.650000E+01  4.107660E+01  1.690425E+07  1.690591E+07  9.971644E-01  2.835554E-03  0.000000E+00  1.024000E+03  1.598306E+02  3.392988E-17  2.951354E-01    1 
 5.000000E-01  5.000000E-01  2.750000E+01  4.103564E+01  1.689421E+07  1.689591E+07  9.971144E-01  2.885561E-03  0.000000E+00  1.024000E+03  1.597676E+02  3.393510E-17  2.953714E-01    1 
 5.000000E-01  5.000000E-01  2.850000E+01  4.099468E+01  1.688418E+07  1.688590E+07  9.970640E-01  2.936029E-03  0.000000E+00  1.024000E+03  1.597047E+02  3.394033E-17  2.956076E-01    1 
 5.000000E-01  5.000000E-01  2.950000E+01  4.095373E+01  1.687414E+07  1.687589E+07  9.970130E-01  2.986983E-03  0.000000E+00  1.024000E+03  1.596417E+02  3.394556E-17  2.958440E-01    1 
 5.000000E-01  5.000000E-01  3.050000E+01  4.091277E+01  1.686411E+07  1.686588E+07  9.969616E-01  3.038443E-03  0.000000E+00  1.024000E+03  1.595787E+02  3.395080E-17  2.960806E-01    1 
 5.000000E-01  5.000000E-01  3.150000E+01  4.087182E+01  1.685407E+07  1.685588E+07  9.969096E-01  3.090422E-03  0.000000E+00  1.024000E+03  1.595156E+02  3.395604E-17  2.963173E-01    1 
 5.000000E-01  5.000000E-01  3.250000E+01  4.083087E+01  1.684403E+07  1.684587E+07  9.968571E-01  3.142934E-03  0.000000E+00  1.024000E+03  1.594526E+02  3.396129E-17  2.965543E-01    1 
 5.000000E-01  5.000000E-01  3.350000E+01  4.078992E+01  1.683400E+07  1.683586E+07  9.968040E-01  3.195987E-03  0.000000E+00  1.024000E+03  1.593895E+02  3.396654E-17  2.967915E-01    1 
 5.000000E-01  5.000000E-01  3.450000E+01  4.074898E+01  1.682396E+07  1.682586E+07  9.967504E-01  3.249593E-03  0.000000E+00  1.024000E+03  1.593264E+02  3.397180E-17  2.970288E-01    1 
 5.000000E-01  5.000000E-01  3.550000E+01  4.070803E+01  1.681393E+07  1.681585E+07  9.966962E-01  3.303764E-03  0.000000E+00  1.024000E+03  1.592633E+02  3.397706E-17  2.972663E-01    1 
 5.000000E-01  5.000000E-01  3.650000E+01  4.066709E+01  1.680389E+07  1.680585E+07  9.966415E-01  3.358518E-03  0.000000E+00  1.024000E+03  1.592001E+02  3.398233E-17  2.975040E-01    1 
 5.000000E-01  5.000000E-01  3.750000E+01  4.062615E+01  1.679385E+07  1.679584E+07  9.965861E-01  3.413877E-03  0.000000E+00  1.024000E+03  1.591369E+02  3.398760E-17  2.977419E-01    1 
 5.000000E-01  5.000000E-01  3.850000E+01  4.058521E+01  1.678382E+07  1.678583E+07  9.965301E-01  3.469870E-03  0.000000E+00  1.024000E+03  1.590737E+02  3.399288E-17  2.979800E-01    1 
 5.000000E-01  5.000000E-01  3.950000E+01  4.054428E+01  1.677378E+07  1.677583E+07  9.964735E-01  3.526529E-03  0.000000E+00  1.024000E+03  1.590105E+02  3.399816E-17  2.982183E-01    1 
 5.000000E-01  5.000000E-01  4.050000E+01  4.050335E+01  1.676375E+07  1.676583E+07  9.964161E-01  3.583892E-03  0.000000E+00  1.024000E+03  1.589473E+02  3.400345E-17  2.984568E-01    1 
 5.000000E-01  5.000000E-01  4.150000E+01  4.046241E+01  1.675371E+07  1.675582E+07  9.963580E-01  3.642001E-03  0.000000E+00  1.024000E+03  1.588840E+02  3.400874E-17  2.986955E-01    1 
 5.000000E-01  5.000000E-01  4.250000E+01  4.042149E+01  1.674367E+07  1.674582E+07  9.962991E-01  3.700897E-03  0.000000E+00  1.024000E+03  1.588207E+02  3.401404E-17  2.989343E-01    1 
 5.000000E-01  5.000000E-01  4.350000E+01  4.038056E+01  1.673364E+07  1.673581E+07  9.962394E-01  3.760621E-03  0.000000E+00  1.024000E+03  1.587574E+02  3.401934E-17  2.991734E-01    1 
 5.000000E-01  5.000000E-01  4.450000E+01  4.033963E+01  1.672360E+07  1.672581E+07  9.961788E-01  3.821210E-03  0.000000E+00  1.024000E+03  1.586940E+02  3.402465E-17  2.994126E-01    1 
 5.000000E-01  5.000000E-01  4.550000E+01  4.029871E+01  1.671356E+07  1.671581E+07  9.961173E-01  3.882695E-03  0.000000E+00  1.024000E+03  1.586307E+02  3.402996E-17  2.996521E-01    1 
 5.000000E-01  5.000000E-01  4.650000E+01  4.025779E+01  1.670353E+07  1.670580E+07  9.960549E-01  3.945100E-03  0.000000E+00  1.024000E+03  1.585673E+02  3.403528E-17  2.998917E-01    1 
 5.000000E-01  5.000000E-01  4.750000E+01  4.021687E+01  1.669349E+07  1.669580E+07  9.959916E-01  4.008439E-03  0.000000E+00  1.024000E+03  1.585039E+02  3.404060E-17  3.001315E-01    1 
 5.000000E-01  5.000000E-01  4.850000E+01  4.017596E+01  1.668345E+07  1.668580E+07  9.959273E-01  4.072718E-03  0.000000E+00  1.024000E+03  1.584404E+02  3.404593E-17  3.003715E-01    1 
 5.000000E-01  5.000000E-01  4.950000E+01  4.013504E+01  1.667342E+07  1.667580E+07  9.958621E-01  4.137930E-03  0.000000E+00  1.024000E+03  1.583770E+02  3.405126E-17  3.006117E-01    1 
 5.000000E-01  5.000000E-01  5.050000E+01  4.009413E+01  1.666338E+07  1.666580E+07  9.957959E-01  4.204061E-03  0.000000E+00  1.024000E+03  1.583135E+02  3.405660E-17  3.008521E-01    1 
 5.000000E-01  5.000000E-01  5.150000E+01  4.005322E+01  1.665334E+07  1.665580E+07  9.957289E-01  4.271087E-03  0.000000E+00  1.024000E+03  1.582500E+02  3.406195E-17  3.010927E-01    1 
 5.000000E-01  5.000000E-01  5.250000E+01  4.001231E+01  1.664331E+07  1.664580E+07  9.956610E-01  4.338977E-03  0.000000E+00  1.024000E+03  1.581865E+02  3.406729E-17  3.013335E-01    1 
 5.000000E-01  5.000000E-01  5.350000E+01  3.997141E+01  1.663327E+07  1.663580E+07  9.955923E-01  4.407692E-03  0.000000E+00  1.024000E+03  1.581229E+02  3.407265E-17  3.015744E-01    1 
 5.000000E-01  5.000000E-01  5.450000E+01  3.993050E+01  1.662323E+07  1.662580E+07  9.955228E-01  4.477192E-03  0.000000E+00  1.024000E+03  1.580593E+02  3.407801E-17  3.018156E-01    1 
 5.000000E-01  5.000000E-01  5.550000E+01  3.988960E+01  1.661320E+07  1.661580E+07  9.954526E-01  4.547431E-03  0.000000E+00  1.024000E+03  1.579957E+02  3.408337E-17  3.020570E-01    1 
 5.000000E-01  5.000000E-01  5.650000E+01  3.984870E+01  1.660316E+07  1.660580E+07  9.953816E-01  4.618362E-03  0.000000E+00  1.024000E+03  1.579321E+02  3.408874E-17  3.022985E-01    1 
 5.000000E-01  5.000000E-01  5.750000E+01  3.980780E+01  1.659312E+07  1.659580E+07  9.953101E-01  4.689939E-03  0.000000E+00  1.024000E+03  1.578685E+02  3.409411E-17  3.025403E-01    1 
 5.000000E-01  5.000000E-01  5.850000E+01  3.976691E+01  1.658309E+07  1.658580E+07  9.952379E-01  4.762110E-03  0.000000E+00  1.024000E+03  1.578048E+02  3.409949E-17  3.027822E-01    1 
 5.000000E-01  5.000000E-01  5.950000E+01  3.972602E+01  1.657305E+07  1.657581E+07  9.951652E-01  4.834827E-03  0.000000E+00  1.024000E+03  1.577411E+02  3.410488E-17  3.030243E-01    1 
 5.000000E-01  5.000000E-01  6.050000E+01  3.968512E+01  1.656301E+07  1.656581E+07  9.950920E-01  4.908036E-03  0.000000E+00  1.024000E+03  1.576774E+02  3.411027E-17  3.032666E-01    1 
 5.000000E-01  5.000000E-01  6.150000E+01  3.964424E+01  1.655297E+07  1.655581E+07  9.950183E-01  4.981681E-03  0.000000E+00  1.024000E+03  1.576136E+02  3.411566E-17  3.035092E-01    1 
 5.000000E-01  5.000000E-01  6.250000E+01  3.960335E+01  1.654294E+07  1.654581E+07  9.949443E-01  5.055699E-03  0.000000E+00  1.024000E+03  1.575499E+02  3.412106E-17  3.037519E-01    1 
 5.000000E-01  5.000000E-01  6.350000E+01  3.956246E+01  1.653290E+07  1.653581E+07  9.948700E-01  5.130021E-03  0.000000E+00  1.024000E+03  1.574861E+02  3.412647E-17  3.039948E-01    1 
 5.000000E-01  5.000000E-01  6.450000E+01  3.952158E+01  1.652286E+07  1.652582E+07  9.947954E-01  5.204566E-03  0.000000E+00  1.024000E+03  1.574223E+02  3.413188E-17  3.042379E-01    1 
 5.000000E-01  5.000000E-01  6.550000E+01  3.948070E+01  1.651283E+07  1.651582E+07  9.947208E-01  5.279245E-03  0.000000E+00  1.024000E+03  1.573584E+02  3.413729E-17  3.044812E-01    1 
 5.000000E-01  5.000000E-01  6.650000E+01  3.943982E+01  1.650279E+07  1.650582E+07  9.946460E-01  5.353958E-03  0.000000E+00  1.024000E+03  1.572945E+02  3.414271E-17  3.047247E-01    1 
 5.000000E-01  5.000000E-01  6.750000E+01  3.939895E+01  1.649275E+07  1.649582E+07  9.945714E-01  5.428592E-03  0.000000E+00  1.024000E+03  1.572306E+02  3.414814E-17  3.049683E-01    1 
 5.000000E-01  5.000000E-01  6.850000E+01  3.935807E+01  1.648271E+07  1.648582E+07  9.944970E-01  5.503029E-03  0.000000E+00  1.024000E+03  1.571667E+02  3.415357E-17  3.052122E-01    1 
 5.000000E-01  5.000000E-01  6.950000E+01  3.931720E+01  1.647268E+07  1.647582E+07  9.944229E-01  5.577141E-03  0.000000E+00  1.024000E+03  1.571027E+02  3.415901E-17  3.054563E-01    1 
 5.000000E-01  5.000000E-01  7.050000E+01  3.927633E+01  1.646264E+07  1.646583E+07  9.943492E-01  5.650798E-03  0.000000E+00  1.024000E+03  1.570387E+02  3.416445E-17  3.057006E-01    1 
 5.000000E-01  5.000000E-01  7.150000E+01  3.923546E+01  1.645260E+07  1.645583E+07  9.942761E-01  5.723871E-03  0.000000E+00  1.024000E+03  1.569747E+02  3.416989E-17  3.059450E-01    1 
 5.000000E-01  5.000000E-01  7.250000E+01  3.919460E+01  1.644256E+07  1.644583E+07  9.942038E-01  5.796236E-03  0.000000E+00  1.024000E+03  1.569107E+02  3.417535E-17  3.061897E-01    1 
 5.000000E-01  5.000000E-01  7.350000E+01  3.915373E+01  1.643253E+07  1.643582E+07  9.941322E-01  5.867779E-03  0.000000E+00  1.024000E+03  1.568466E+02  3.418080E-17  3.064345E-01    1 
 5.000000E-01  5.000000E-01  7.450000E+01  3.911287E+01  1.642249E+07  1.642582E+07  9.940616E-01  5.938400E-03  0.000000E+00  1.024000E+03  1.567825E+02  3.418627E-17  3.066796E-01    1 
 5.000000E-01  5.000000E-01  7.550000E+01  3.907201E+01  1.641245E+07  1.641582E+07  9.939920E-01  6.008017E-03  0.000000E+00  1.024000E+03  1.567183E+02  3.419173E-17  3.069248E-01    1 
 5.000000E-01  5.000000E-01  7.650000E+01  3.903115E+01  1.640241E+07  1.640582E+07  9.939234E-01  6.076567E-03  0.000000E+00  1.024000E+03  1.566541E+02  3.419721E-17  3.071703E-01    1 
 5.000000E-01  5.000000E-01  7.750000E+01  3.899030E+01  1.639238E+07  1.639582E+07  9.938560E-01  6.144012E-03  0.000000E+00  1.024000E+03  1.565899E+02  3.420268E-17  3.074159E-01    1 
 5.000000E-01  5.000000E-01  7.850000E+01  3.894945E+01  1.638234E+07  1.638581E+07  9.937897E-01  6.210332E-03  0.000000E+00  1.024000E+03  1.565257E+02  3.420817E-17  3.076617E-01    1 
 5.000000E-01  5.000000E-01  7.950000E+01  3.890860E+01  1.637230E+07  1.637581E+07  9.937245E-01  6.275532E-03  0.000000E+00  1.024000E+03  1.564614E+02  3.421366E-17  3.079078E-01    1 
 5.000000E-01  5.000000E-01  8.050000E+01  3.886775E+01  1.636226E+07  1.636580E+07  9.936604E-01  6.339634E-03  0.000000E+00  1.024000E+03  1.563971E+02  3.421915E-17  3.081540E-01    1 
 5.000000E-01  5.000000E-01  8.150000E+01  3.882690E+01  1.635222E+07  1.635580E+07  9.935973E-01  6.402676E-03  0.000000E+00  1.024000E+03  1.563327E+02  3.422465E-17  3.084004E-01    1 
 5.000000E-01  5.000000E-01  8.250000E+01  3.878606E+01  1.634219E+07  1.634579E+07  9.935353E-01  6.464712E-03  0.000000E+00  1.024000E+03  1.562684E+02  3.423015E-17  3.086470E-01    1 
 5.000000E-01  5.000000E-01  8.350000E+01  3.874522E+01  1.633215E+07  1.633578E+07  9.934742E-01  6.525804E-03  0.000000E+00  1.024000E+03  1.562040E+02  3.423566E-17  3.088939E-01    1 
 5.000000E-01  5.000000E-01  8.450000E+01  3.870438E+01  1.632211E+07  1.632577E+07  9.934140E-01  6.586019E-03  0.000000E+00  1.024000E+03  1.561395E+02  3.424118E-17  3.091409E-01    1 
 5.000000E-01  5.000000E-01  8.550000E+01  3.866354E+01  1.631207E+07  1.631577E+07  9.933546E-01  6.645429E-03  0.000000E+00  1.024000E+03  1.560751E+02  3.424670E-17  3.093881E-01    1 
 5.000000E-01  5.000000E-01  8.650000E+01  3.862270E+01  1.630203E+07  1.630576E+07  9.932959E-01  6.704103E-03  0.000000E+00  1.024000E+03  1.560106E+02  3.425222E-17  3.096355E-01    1 
 5.000000E-01  5.000000E-01  8.750000E+01  3.858187E+01  1.629200E+07  1.629575E+07  9.932379E-01  6.762109E-03  0.000000E+00  1.024000E+03  1.559460E+02  3.425775E-17  3.098831E-01    1 
 5.000000E-01  5.000000E-01  8.850000E+01  3.854104E+01  1.628196E+07  1.628574E+07  9.931805E-01  6.819512E-03  0.000000E+00  1.024000E+03  1.558815E+02  3.426329E-17  3.101309E-01    1 
 5.000000E-01  5.000000E-01  8.950000E+01  3.850021E+01  1.627192E+07  1.627573E+07  9.931236E-01  6.876371E-03  0.000000E+00  1.024000E+03  1.558169E+02  3.426883E-17  3.103789E-01    1 
 5.000000E-01  5.000000E-01  9.050000E+01  3.845939E+01  1.626188E+07  1.626572E+07  9.930673E-01  6.932739E-03  0.000000E+00  1.024000E+03  1.557523E+02  3.427438E-17  3.106271E-01    1 
 5.000000E-01  5.000000E-01  9.150000E+01  3.841856E+01  1.625184E+07  1.625571E+07  9.930113E-01  6.988665E-03  0.000000E+00  1.024000E+03  1.556876E+02  3.427993E-17  3.108755E-01    1 
 5.000000E-01  5.000000E-01  9.250000E+01  3.837774E+01  1.624181E+07  1.624570E+07  9.929558E-01  7.044193E-03  0.000000E+00  1.024000E+03  1.556230E+02  3.428549E-17  3.111241E-01    1 
 5.000000E-01  5.000000E-01  9.350000E+01  3.833692E+01  1.623177E+07  1.623569E+07  9.929006E-01  7.099362E-03  0.000000E+00  1.024000E+03  1.555583E+02  3.429105E-17  3.113729E-01    1 
 5.000000E-01  5.000000E-01  9.450000E+01  3.829610E+01  1.622173E+07  1.622568E+07  9.928458E-01  7.154209E-03  0.000000E+00  1.024000E+03  1.554935E+02  3.429662E-17  3.116219E-01    1 
 5.000000E-01  5.000000E-01  9.550000E+01  3.825529E+01  1.621169E+07  1.621566E+07  9.927912E-01  7.208770E-03  0.000000E+00  1.024000E+03  1.554288E+02  3.430219E-17  3.118711E-01    1 
 5.000000E-01  5.000000E-01  9.650000E+01  3.821448E+01  1.620165E+07  1.620565E+07  9.927369E-01  7.263077E-03  0.000000E+00  1.024000E+03  1.553640E+02  3.430777E-17  3.121205E-01    1 
 5.000000E-01  5.000000E-01  9.750000E+01  3.817367E+01  1.619161E+07  1.619564E+07  9.926828E-01  7.317163E-03  0.000000E+00  1.024000E+03  1.552992E+02  3.431336E-17  3.123701E-01    1 
 5.000000E-01  5.000000E-01  9.850000E+01  3.813286E+01  1.618158E+07  1.618563E+07  9.926289E-01  7.371062E-03  0.000000E+00  1.024000E+03  1.552343E+02  3.431895E-17  3.126199E-01    1 
 5.000000E-01  5.000000E-01  9.950000E+01  3.809205E+01  1.617154E+07  1.617562E+07  9.925752E-01  7.424804E-03  0.000000E+00  1.024000E+03  1.551694E+02  3.432454E-17  3.128699E-01    1 
 5.000000E-01  5.000000E-01  1.005000E+02  3.805125E+01  1.616150E+07  1.616561E+07  9.925216E-01  7.478424E-03  0.000000E+00  1.024000E+03  1.551045E+02  3.433014E-17  3.131201E-01    1 
 5.000000E-01  5.000000E-01  1.015000E+02  3.801045E+01  1.615146E+07  1.615559E+07  9.924680E-01  7.531955E-03  0.000000E+00  1.024000E+03  1.550396E+02  3.433575E-17  3.133705E-01    1 
 5.000000E-01  5.000000E-01  1.025000E+02  3.796965E+01  1.614142E+07  1.614558E+07  9.924146E-01  7.585429E-03  0.000000E+00  1.024000E+03  1.549747E+02  3.434136E-17  3.136211E-01    1 
 5.000000E-01  5.000000E-01  1.035000E+02  3.792886E+01  1.613138E+07  1.613557E+07  9.923611E-01  7.638881E-03  0.000000E+00  1.024000E+03  1.549097E+02  3.434698E-17  3.138719E-01    1 
 5.000000E-01  5.000000E-01  1.045000E+02  3.788806E+01  1.612134E+07  1.612555E+07  9.923077E-01  7.692345E-03  0.000000E+00  1.024000E+03  1.548446E+02  3.435260E-17  3.141229E-01    1 
 5.000000E-01  5.000000E-01  1.055000E+02  3.784727E+01  1.611131E+07  1.611554E+07  9.922541E-01  7.745854E-03  0.000000E+00  1.024000E+03  1.547796E+02  3.435823E-17  3.143741E-01    1 
 5.000000E-01  5.000000E-01  1.065000E+02  3.780648E+01  1.610127E+07  1.610553E+07  9.922006E-01  7.799442E-03  0.000000E+00  1.024000E+03  1.547145E+02  3.436386E-17  3.146255E-01    1 
 5.000000E-01  5.000000E-01  1.075000E+02  3.776570E+01  1.609123E+07  1.609552E+07  9.921469E-01  7.853142E-03  0.000000E+00  1.024000E+03  1.546494E+02  3.436950E-17  3.148771E-01    1 
 5.000000E-01  5.000000E-01  1.085000E+02  3.772491E+01  1.608119E+07  1.608550E+07  9.920930E-01  7.906988E-03  0.000000E+00  1.024000E+03  1.545843E+02  3.437514E-17  3.151289E-01    1 
 5.000000E-01  5.000000E-01  1.095000E+02  3.768413E+01  1.607115E+07  1.607549E+07  9.920390E-01  7.961011E-03  0.000000E+00  1.024000E+03  1.545192E+02  3.438079E-17  3.153809E-01    1 
 5.000000E-01  5.000000E-01  1.105000E+02  3.764335E+01  1.606111E+07  1.606548E+07  9.919848E-01  8.015245E-03  0.000000E+00  1.024000E+03  1.544540E+02  3.438645E-17  3.156331E-01    1 
 5.000000E-01  5.000000E-01  1.115000E+02  3.760257E+01  1.605107E+07  1.605547E+07  9.919303E-01  8.069722E-03  0.000000E+00  1.024000E+03  1.543888E+02  3.439211E-17  3.158855E-01    1 
 5.000000E-01  5.000000E-01  1.125000E+02  3.756180E+01  1.604103E+07  1.604545E+07  9.918755E-01  8.124473E-03  0.000000E+00  1.024000E+03  1.543235E+02  3.439777E-17  3.161381E-01    1 
 5.000000E-01  5.000000E-01  1.135000E+02  3.752102E+01  1.603099E+07  1.603544E+07  9.918205E-01  8.179532E-03  0.000000E+00  1.024000E+03  1.542583E+02  3.440344E-17  3.163909E-01    1 
 5.000000E-01  5.000000E-01  1.145000E+02  3.748025E+01  1.602096E+07  1.602543E+07  9.917651E-01  8.234929E-03  0.000000E+00  1.024000E+03  1.541930E+02  3.440912E-17  3.166439E-01    1 
 5.000000E-01  5.000000E-01  1.155000E+02  3.743949E+01  1.601092E+07  1.601541E+07  9.917093E-01  8.290697E-03  0.000000E+00  1.024000E+03  1.541277E+02  3.441480E-17  3.168971E-01    1 
 5.000000E-01  5.000000E-01  1.165000E+02  3.739872E+01  1.600088E+07  1.600540E+07  9.916531E-01  8.346867E-03  0.000000E+00  1.024000E+03  1.540623E+02  3.442049E-17  3.171506E-01    1 
 5.000000E-01  5.000000E-01  1.175000E+02  3.735796E+01  1.599084E+07  1.599539E+07  9.915965E-01  8.403472E-03  0.000000E+00  1.024000E+03  1.539970E+02  3.442618E-17  3.174042E-01    1 
 5.000000E-01  5.000000E-01  1.185000E+02  3.731720E+01  1.598080E+07  1.598538E+07  9.915395E-01  8.460542E-03  0.000000E+00  1.024000E+03  1.539316E+02  3.443188E-17  3.176580E-01    1 
 5.000000E-01  5.000000E-01  1.195000E+02  3.727644E+01  1.597076E+07  1.597537E+07  9.914819E-01  8.518110E-03  0.000000E+00  1.024000E+03  1.538662E+02  3.443758E-17  3.179120E-01    1 
 5.000000E-01  5.000000E-01  1.205000E+02  3.723568E+01  1.596072E+07  1.596535E+07  9.914238E-01  8.576204E-03  0.000000E+00  1.024000E+03  1.538007E+02  3.444329E-17  3.181663E-01    1 
 5.000000E-01  5.000000E-01  1.215000E+02  3.719493E+01  1.595068E+07  1.595534E+07  9.913651E-01  8.634855E-03  0.000000E+00  1.024000E+03  1.537353E+02  3.444901E-17  3.184207E-01    1 
 5.000000E-01  5.000000E-01  1.225000E+02  3.715418E+01  1.594064E+07  1.594533E+07  9.913059E-01  8.694088E-03  0.000000E+00  1.024000E+03  1.536698E+02  3.445473E-17  3.186753E-01    1 
 5.000000E-01  5.000000E-01  1.235000E+02  3.711343E+01  1.593060E+07  1.593532E+07  9.912461E-01  8.753930E-03  0.000000E+00  1.024000E+03  1.536042E+02  3.446046E-17  3.189302E-01    1 
 5.000000E-01  5.000000E-01  1.245000E+02  3.707268E+01  1.592056E+07  1.592531E+07  9.911856E-01  8.814402E-03  0.000000E+00  1.024000E+03  1.535387E+02  3.446619E-17  3.191852E-01    1 
 5.000000E-01  5.000000E-01  1.255000E+02  3.703194E+01  1.591052E+07  1.591530E+07  9.911245E-01  8.875522E-03  0.000000E+00  1.024000E+03  1.534731E+02  3.447192E-17  3.194405E-01    1 
 5.000000E-01  5.000000E-01  1.265000E+02  3.699119E+01  1.590048E+07  1.590529E+07  9.910627E-01  8.937305E-03  0.000000E+00  1.024000E+03  1.534075E+02  3.447767E-17  3.196959E-01    1 
 5.000000E-01  5.000000E-01  1.275000E+02  3.695045E+01  1.589044E+07  1.589528E+07  9.910002E-01  8.999759E-03  0.000000E+00  1.024000E+03  1.533419E+02  3.448342E-17  3.199516E-01    1 
 5.000000E-01  5.000000E-01  1.285000E+02  3.690972E+01  1.588040E+07  1.588527E+07  9.909371E-01  9.062886E-03  0.000000E+00  1.024000E+03  1.532762E+02  3.448917E-17  3.202074E-01    1 
 5.000000E-01  5.000000E-01  1.295000E+02  3.686898E+01  1.587037E+07  1.587526E+07  9.908733E-01  9.126683E-03  0.000000E+00  1.024000E+03  1.532106E+02  3.449493E-17  3.204635E-01    1 
 5.000000E-01  5.000000E-01  1.305000E+02  3.682825E+01  1.586033E+07  1.586525E+07  9.908089E-01  9.191139E-03  0.000000E+00  1.024000E+03  1.531449E+02  3.450069E-17  3.207197E-01    1 
 5.000000E-01  5.000000E-01  1.315000E+02  3.678752E+01  1.585029E+07  1.585524E+07  9.907438E-01  9.256235E-03  0.000000E+00  1.024000E+03  1.530791E+02  3.450646E-17  3.209762E-01    1 
 5.000000E-01  5.000000E-01  1.325000E+02  3.674679E+01  1.584025E+07  1.584523E+07  9.906781E-01  9.321943E-03  0.000000E+00  1.024000E+03  1.530134E+02  3.451224E-17  3.212329E-01    1 
 5.000000E-01  5.000000E-01  1.335000E+02  3.670607E+01  1.583021E+07  1.583522E+07  9.906118E-01  9.388230E-03  0.000000E+00  1.024000E+03  1.529476E+02  3.451802E-17  3.214898E-01    1 
 5.000000E-01  5.000000E-01  1.345000E+02  3.666534E+01  1.582017E+07  1.582521E+07  9.905449E-01  9.455051E-03  0.000000E+00  1.024000E+03  1.528818E+02  3.452381E-17  3.217469E-01    1 
 5.000000E-01  5.000000E-01  1.355000E+02  3.662462E+01  1.581013E+07  1.581520E+07  9.904776E-01  9.522356E-03  0.000000E+00  1.024000E+03  1.528160E+02  3.452960E-17  3.220042E-01    1 
 5.000000E-01  5.000000E-01  1.365000E+02  3.658390E+01  1.580009E+07  1.580519E+07  9.904099E-01  9.590088E-03  0.000000E+00  1.024000E+03  1.527501E+02  3.453540E-17  3.222617E-01    1 
 5.000000E-01  5.000000E-01  1.375000E+02  3.654319E+01  1.579005E+07  1.579518E+07  9.903418E-01  9.658181E-03  0.000000E+00  1.024000E+03  1.526842E+02  3.454121E-17  3.225194E-01    1 
 5.000000E-01  5.000000E-01  1.385000E+02  3.650247E+01  1.578001E+07  1.578517E+07  9.902734E-01  9.726567E-03  0.000000E+00  1.024000E+03  1.526183E+02  3.454701E-17  3.227773E-01    1 
 5.000000E-01  5.000000E-01  1.395000E+02  3.646176E+01  1.576997E+07  1.577516E+07  9.902048E-01  9.795171E-03  0.000000E+00  1.024000E+03  1.525524E+02  3.455283E-17  3.230354E-01    1 
 5.000000E-01  5.000000E-01  1.405000E+02  3.642105E+01  1.575993E+07  1.576515E+07  9.901361E-01  9.863918E-03  0.000000E+00  1.024000E+03  1.524864E+02  3.455865E-17  3.232937E-01    1 
 5.000000E-01  5.000000E-01  1.415000E+02  3.638035E+01  1.574989E+07  1.575514E+07  9.900673E-01  9.932730E-03  0.000000E+00  1.024000E+03  1.524204E+02  3.456448E-17  3.235523E-01    1 
 5.000000E-01  5.000000E-01  1.425000E+02  3.633964E+01  1.573985E+07  1.574514E+07  9.899985E-01  1.000153E-02  0.000000E+00  1.024000E+03  1.523544E+02  3.457031E-17  3.238110E-01    1 
 5.000000E-01  5.000000E-01  1.435000E+02  3.629894E+01  1.572981E+07  1.573513E+07  9.899298E-01  1.007024E-02  0.000000E+00  1.024000E+03  1.522883E+02  3.457615E-17  3.240699E-01    1 
 5.000000E-01  5.000000E-01  1.445000E+02  3.625824E+01  1.571977E+07  1.572512E+07  9.898612E-01  1.013879E-02  0.000000E+00  1.024000E+03  1.522222E+02  3.458199E-17  3.243291E-01    1 
 5.000000E-01  5.000000E-01  1.455000E+02  3.621754E+01  1.570973E+07  1.571511E+07  9.897929E-01  1.020711E-02  0.000000E+00  1.024000E+03  1.521561E+02  3.458784E-17  3.245885E-01    1 
 5.000000E-01  5.000000E-01  1.465000E+02  3.617685E+01  1.569968E+07  1.570510E+07  9.897249E-01  1.027514E-02  0.000000E+00  1.024000E+03  1.520899E+02  3.459370E-17  3.248480E-01    1 
 5.000000E-01  5.000000E-01  1.475000E+02  3.613616E+01  1.568964E+07  1.569509E+07  9.896572E-01  1.034282E-02  0.000000E+00  1.024000E+03  1.520238E+02  3.459956E-17  3.251078E-01    1 
 5.000000E-01  5.000000E-01  1.485000E+02  3.609547E+01  1.567960E+07  1.568508E+07  9.895899E-01  1.041011E-02  0.000000E+00  1.024000E+03  1.519576E+02  3.460542E-17  3.253678E-01    1 
 5.000000E-01  5.000000E-01  1.495000E+02  3.605478E+01  1.566956E+07  1.567506E+07  9.895230E-01  1.047697E-02  0.000000E+00  1.024000E+03  1.518913E+02  3.461129E-17  3.256280E-01    1 
 5.000000E-01  5.000000E-01  1.505000E+02  3.601410E+01  1.565952E+07  1.566505E+07  9.894566E-01  1.054336E-02  0.000000E+00  1.024000E+03  1.518251E+02  3.461717E-17  3.258884E-01    1 
 5.000000E-01  5.000000E-01  1.515000E+02  3.597341E+01  1.564948E+07  1.565504E+07  9.893907E-01  1.060925E-02  0.000000E+00  1.024000E+03  1.517588E+02  3.462306E-17  3.261490E-01    1 
 5.000000E-01  5.000000E-01  1.525000E+02  3.593273E+01  1.563944E+07  1.564503E+07  9.893254E-01  1.067464E-02  0.000000E+00  1.024000E+03  1.516924E+02  3.462894E-17  3.264098E-01    1 
 5.000000E-01  5.000000E-01  1.535000E+02  3.589205E+01  1.562940E+07  1.563502E+07  9.892605E-01  1.073952E-02  0.000000E+00  1.024000E+03  1.516261E+02  3.463484E-17  3.266708E-01    1 
 5.000000E-01  5.000000E-01  1.545000E+02  3.585138E+01  1.561936E+07  1.562500E+07  9.891961E-01  1.080388E-02  0.000000E+00  1.024000E+03  1.515597E+02  3.464074E-17  3.269320E-01    1 
 5.000000E-01  5.000000E-01  1.555000E+02  3.581071E+01  1.560932E+07  1.561499E+07  9.891323E-01  1.086772E-02  0.000000E+00  1.024000E+03  1.514933E+02  3.464665E-17  3.271935E-01    1 
 5.000000E-01  5.000000E-01  1.565000E+02  3.577004E+01  1.559928E+07  1.560498E+07  9.890689E-01  1.093106E-02  0.000000E+00  1.024000E+03  1.514268E+02  3.465256E-17  3.274551E-01    1 