TITLE = "  1.10700E+05 [y]"
VARIABLES="X [m]","Y [m]","Z [m]","Temperature [C]","Liquid Pressure [Pa]","Gas Pressure [Pa]","Liquid Saturation","Gas Saturation","Hydrate Saturation","Liquid Density [kg/m^3]","Gas Density [kg/m^3]","Permeability X [m^2]","Porosity","Material ID"
ZONE T="1.10700E+05", STRANDID=1, SOLUTIONTIME=1.10700E+05, I=1, J=1, K=1000, DATAPACKING=POINT
 5.000000E-01  5.000000E-01  5.000000E-01  4.125652E+01  1.749437E+07  1.750001E+07  9.891990E-01  1.080104E-02  0.000000E+00  1.024000E+03  1.645176E+02  3.379583E-17  2.890648E-01    1 
 5.000000E-01  5.000000E-01  1.500000E+00  4.121545E+01  1.748433E+07  1.749001E+07  9.891327E-01  1.086727E-02  0.000000E+00  1.024000E+03  1.644560E+02  3.380093E-17  2.892959E-01    1 
 5.000000E-01  5.000000E-01  2.500000E+00  4.117439E+01  1.747430E+07  1.748000E+07  9.890725E-01  1.092749E-02  0.000000E+00  1.024000E+03  1.643943E+02  3.380603E-17  2.895273E-01    1 
 5.000000E-01  5.000000E-01  3.500000E+00  4.113333E+01  1.746426E+07  1.746999E+07  9.890127E-01  1.098730E-02  0.000000E+00  1.024000E+03  1.643327E+02  3.381113E-17  2.897588E-01    1 
 5.000000E-01  5.000000E-01  4.500000E+00  4.109228E+01  1.745423E+07  1.745998E+07  9.889533E-01  1.104672E-02  0.000000E+00  1.024000E+03  1.642710E+02  3.381624E-17  2.899905E-01    1 
 5.000000E-01  5.000000E-01  5.500000E+00  4.105123E+01  1.744419E+07  1.744997E+07  9.888942E-01  1.110580E-02  0.000000E+00  1.024000E+03  1.642092E+02  3.382135E-17  2.902224E-01    1 
 5.000000E-01  5.000000E-01  6.500000E+00  4.101018E+01  1.743416E+07  1.743996E+07  9.888355E-01  1.116454E-02  0.000000E+00  1.024000E+03  1.641475E+02  3.382647E-17  2.904545E-01    1 
 5.000000E-01  5.000000E-01  7.500000E+00  4.096914E+01  1.742412E+07  1.742995E+07  9.887770E-01  1.122299E-02  0.000000E+00  1.024000E+03  1.640857E+02  3.383160E-17  2.906868E-01    1 
 5.000000E-01  5.000000E-01  8.500000E+00  4.092810E+01  1.741409E+07  1.741994E+07  9.887188E-01  1.128117E-02  0.000000E+00  1.024000E+03  1.640239E+02  3.383673E-17  2.909192E-01    1 
 5.000000E-01  5.000000E-01  9.500000E+00  4.088706E+01  1.740405E+07  1.740993E+07  9.886609E-01  1.133911E-02  0.000000E+00  1.024000E+03  1.639620E+02  3.384186E-17  2.911519E-01    1 
 5.000000E-01  5.000000E-01  1.050000E+01  4.084603E+01  1.739402E+07  1.739992E+07  9.886032E-01  1.139683E-02  0.000000E+00  1.024000E+03  1.639001E+02  3.384700E-17  2.913847E-01    1 
 5.000000E-01  5.000000E-01  1.150000E+01  4.080500E+01  1.738398E+07  1.738991E+07  9.885456E-01  1.145438E-02  0.000000E+00  1.024000E+03  1.638383E+02  3.385214E-17  2.916177E-01    1 
 5.000000E-01  5.000000E-01  1.250000E+01  4.076398E+01  1.737395E+07  1.737990E+07  9.884882E-01  1.151176E-02  0.000000E+00  1.024000E+03  1.637763E+02  3.385729E-17  2.918509E-01    1 
 5.000000E-01  5.000000E-01  1.350000E+01  4.072296E+01  1.736391E+07  1.736988E+07  9.884310E-01  1.156903E-02  0.000000E+00  1.024000E+03  1.637144E+02  3.386244E-17  2.920843E-01    1 
 5.000000E-01  5.000000E-01  1.450000E+01  4.068195E+01  1.735388E+07  1.735987E+07  9.883738E-01  1.162619E-02  0.000000E+00  1.024000E+03  1.636524E+02  3.386760E-17  2.923179E-01    1 
 5.000000E-01  5.000000E-01  1.550000E+01  4.064093E+01  1.734384E+07  1.734986E+07  9.883167E-01  1.168328E-02  0.000000E+00  1.024000E+03  1.635904E+02  3.387276E-17  2.925516E-01    1 
 5.000000E-01  5.000000E-01  1.650000E+01  4.059993E+01  1.733381E+07  1.733985E+07  9.882597E-01  1.174033E-02  0.000000E+00  1.024000E+03  1.635284E+02  3.387793E-17  2.927856E-01    1 
 5.000000E-01  5.000000E-01  1.750000E+01  4.055892E+01  1.732377E+07  1.732984E+07  9.882026E-01  1.179736E-02  0.000000E+00  1.024000E+03  1.634663E+02  3.388310E-17  2.930197E-01    1 
 5.000000E-01  5.000000E-01  1.850000E+01  4.051792E+01  1.731374E+07  1.731983E+07  9.881456E-01  1.185441E-02  0.000000E+00  1.024000E+03  1.634042E+02  3.388828E-17  2.932541E-01    1 
 5.000000E-01  5.000000E-01  1.950000E+01  4.047693E+01  1.730370E+07  1.730982E+07  9.880885E-01  1.191149E-02  0.000000E+00  1.024000E+03  1.633421E+02  3.389346E-17  2.934886E-01    1 
 5.000000E-01  5.000000E-01  2.050000E+01  4.043593E+01  1.729367E+07  1.729981E+07  9.880314E-01  1.196863E-02  0.000000E+00  1.024000E+03  1.632800E+02  3.389865E-17  2.937233E-01    1 
 5.000000E-01  5.000000E-01  2.150000E+01  4.039495E+01  1.728363E+07  1.728980E+07  9.879741E-01  1.202586E-02  0.000000E+00  1.024000E+03  1.632178E+02  3.390384E-17  2.939581E-01    1 
 5.000000E-01  5.000000E-01  2.250000E+01  4.035396E+01  1.727360E+07  1.727978E+07  9.879168E-01  1.208321E-02  0.000000E+00  1.024000E+03  1.631556E+02  3.390904E-17  2.941932E-01    1 
 5.000000E-01  5.000000E-01  2.350000E+01  4.031298E+01  1.726356E+07  1.726977E+07  9.878593E-01  1.214069E-02  0.000000E+00  1.024000E+03  1.630934E+02  3.391424E-17  2.944285E-01    1 
 5.000000E-01  5.000000E-01  2.450000E+01  4.027201E+01  1.725353E+07  1.725976E+07  9.878017E-01  1.219834E-02  0.000000E+00  1.024000E+03  1.630311E+02  3.391945E-17  2.946639E-01    1 
 5.000000E-01  5.000000E-01  2.550000E+01  4.023103E+01  1.724349E+07  1.724975E+07  9.877438E-01  1.225616E-02  0.000000E+00  1.024000E+03  1.629689E+02  3.392466E-17  2.948996E-01    1 
 5.000000E-01  5.000000E-01  2.650000E+01  4.019006E+01  1.723346E+07  1.723974E+07  9.876858E-01  1.231419E-02  0.000000E+00  1.024000E+03  1.629066E+02  3.392988E-17  2.951354E-01    1 
 5.000000E-01  5.000000E-01  2.750000E+01  4.014910E+01  1.722342E+07  1.722973E+07  9.876275E-01  1.237245E-02  0.000000E+00  1.024000E+03  1.628442E+02  3.393510E-17  2.953714E-01    1 
 5.000000E-01  5.000000E-01  2.850000E+01  4.010814E+01  1.721339E+07  1.721972E+07  9.875690E-01  1.243096E-02  0.000000E+00  1.024000E+03  1.627819E+02  3.394033E-17  2.956076E-01    1 
 5.000000E-01  5.000000E-01  2.950000E+01  4.006718E+01  1.720335E+07  1.720971E+07  9.875103E-01  1.248974E-02  0.000000E+00  1.024000E+03  1.627195E+02  3.394556E-17  2.958440E-01    1 
 5.000000E-01  5.000000E-01  3.050000E+01  4.002623E+01  1.719332E+07  1.719970E+07  9.874512E-01  1.254880E-02  0.000000E+00  1.024000E+03  1.626571E+02  3.395080E-17  2.960806E-01    1 
 5.000000E-01  5.000000E-01  3.150000E+01  3.998528E+01  1.718328E+07  1.718968E+07  9.873918E-01  1.260816E-02  0.000000E+00  1.024000E+03  1.625947E+02  3.395604E-17  2.963173E-01    1 
 5.000000E-01  5.000000E-01  3.250000E+01  3.994434E+01  1.717325E+07  1.717967E+07  9.873321E-01  1.266785E-02  0.000000E+00  1.024000E+03  1.625322E+02  3.396129E-17  2.965543E-01    1 
 5.000000E-01  5.000000E-01  3.350000E+01  3.990339E+01  1.716321E+07  1.716966E+07  9.872721E-01  1.272787E-02  0.000000E+00  1.024000E+03  1.624698E+02  3.396654E-17  2.967915E-01    1 
 5.000000E-01  5.000000E-01  3.450000E+01  3.986246E+01  1.715318E+07  1.715965E+07  9.872118E-01  1.278824E-02  0.000000E+00  1.024000E+03  1.624073E+02  3.397180E-17  2.970288E-01    1 
 5.000000E-01  5.000000E-01  3.550000E+01  3.982152E+01  1.714314E+07  1.714964E+07  9.871510E-01  1.284898E-02  0.000000E+00  1.024000E+03  1.623447E+02  3.397706E-17  2.972663E-01    1 
 5.000000E-01  5.000000E-01  3.650000E+01  3.978060E+01  1.713311E+07  1.713963E+07  9.870899E-01  1.291008E-02  0.000000E+00  1.024000E+03  1.622822E+02  3.398233E-17  2.975040E-01    1 
 5.000000E-01  5.000000E-01  3.750000E+01  3.973967E+01  1.712307E+07  1.712962E+07  9.870284E-01  1.297157E-02  0.000000E+00  1.024000E+03  1.622196E+02  3.398760E-17  2.977419E-01    1 
 5.000000E-01  5.000000E-01  3.850000E+01  3.969875E+01  1.711304E+07  1.711961E+07  9.869666E-01  1.303344E-02  0.000000E+00  1.024000E+03  1.621570E+02  3.399288E-17  2.979800E-01    1 
 5.000000E-01  5.000000E-01  3.950000E+01  3.965783E+01  1.710300E+07  1.710960E+07  9.869043E-01  1.309571E-02  0.000000E+00  1.024000E+03  1.620944E+02  3.399816E-17  2.982183E-01    1 
 5.000000E-01  5.000000E-01  4.050000E+01  3.961692E+01  1.709297E+07  1.709959E+07  9.868416E-01  1.315837E-02  0.000000E+00  1.024000E+03  1.620317E+02  3.400345E-17  2.984568E-01    1 
 5.000000E-01  5.000000E-01  4.150000E+01  3.957601E+01  1.708293E+07  1.708958E+07  9.867786E-01  1.322142E-02  0.000000E+00  1.024000E+03  1.619690E+02  3.400874E-17  2.986955E-01    1 
 5.000000E-01  5.000000E-01  4.250000E+01  3.953510E+01  1.707290E+07  1.707957E+07  9.867151E-01  1.328487E-02  0.000000E+00  1.024000E+03  1.619063E+02  3.401404E-17  2.989343E-01    1 
 5.000000E-01  5.000000E-01  4.350000E+01  3.949420E+01  1.706286E+07  1.706956E+07  9.866513E-01  1.334871E-02  0.000000E+00  1.024000E+03  1.618436E+02  3.401934E-17  2.991734E-01    1 
 5.000000E-01  5.000000E-01  4.450000E+01  3.945331E+01  1.705283E+07  1.705955E+07  9.865871E-01  1.341293E-02  0.000000E+00  1.024000E+03  1.617808E+02  3.402465E-17  2.994126E-01    1 
 5.000000E-01  5.000000E-01  4.550000E+01  3.941241E+01  1.704279E+07  1.704954E+07  9.865225E-01  1.347752E-02  0.000000E+00  1.024000E+03  1.617180E+02  3.402996E-17  2.996521E-01    1 
 5.000000E-01  5.000000E-01  4.650000E+01  3.937152E+01  1.703276E+07  1.703953E+07  9.864575E-01  1.354248E-02  0.000000E+00  1.024000E+03  1.616552E+02  3.403528E-17  2.998917E-01    1 
 5.000000E-01  5.000000E-01  4.750000E+01  3.933064E+01  1.702272E+07  1.702952E+07  9.863922E-01  1.360778E-02  0.000000E+00  1.024000E+03  1.615924E+02  3.404060E-17  3.001315E-01    1 
 5.000000E-01  5.000000E-01  4.850000E+01  3.928975E+01  1.701269E+07  1.701951E+07  9.863266E-01  1.367341E-02  0.000000E+00  1.024000E+03  1.615295E+02  3.404593E-17  3.003715E-01    1 
 5.000000E-01  5.000000E-01  4.950000E+01  3.924888E+01  1.700265E+07  1.700950E+07  9.862606E-01  1.373935E-02  0.000000E+00  1.024000E+03  1.614666E+02  3.405126E-17  3.006117E-01    1 
 5.000000E-01  5.000000E-01  5.050000E+01  3.920800E+01  1.699262E+07  1.699950E+07  9.861944E-01  1.380559E-02  0.000000E+00  1.024000E+03  1.614037E+02  3.405660E-17  3.008521E-01    1 
 5.000000E-01  5.000000E-01  5.150000E+01  3.916713E+01  1.698258E+07  1.698949E+07  9.861279E-01  1.387209E-02  0.000000E+00  1.024000E+03  1.613407E+02  3.406195E-17  3.010927E-01    1 
 5.000000E-01  5.000000E-01  5.250000E+01  3.912627E+01  1.697255E+07  1.697948E+07  9.860612E-01  1.393883E-02  0.000000E+00  1.024000E+03  1.612778E+02  3.406729E-17  3.013335E-01    1 
 5.000000E-01  5.000000E-01  5.350000E+01  3.908541E+01  1.696251E+07  1.696947E+07  9.859942E-01  1.400579E-02  0.000000E+00  1.024000E+03  1.612148E+02  3.407265E-17  3.015744E-01    1 
 5.000000E-01  5.000000E-01  5.450000E+01  3.904455E+01  1.695248E+07  1.695946E+07  9.859271E-01  1.407294E-02  0.000000E+00  1.024000E+03  1.611517E+02  3.407801E-17  3.018156E-01    1 
 5.000000E-01  5.000000E-01  5.550000E+01  3.900369E+01  1.694244E+07  1.694945E+07  9.858598E-01  1.414025E-02  0.000000E+00  1.024000E+03  1.610887E+02  3.408337E-17  3.020570E-01    1 
 5.000000E-01  5.000000E-01  5.650000E+01  3.896285E+01  1.693241E+07  1.693944E+07  9.857923E-01  1.420769E-02  0.000000E+00  1.024000E+03  1.610256E+02  3.408874E-17  3.022985E-01    1 
 5.000000E-01  5.000000E-01  5.750000E+01  3.892200E+01  1.692237E+07  1.692943E+07  9.857248E-01  1.427523E-02  0.000000E+00  1.024000E+03  1.609625E+02  3.409411E-17  3.025403E-01    1 
 5.000000E-01  5.000000E-01  5.850000E+01  3.888116E+01  1.691234E+07  1.691942E+07  9.856572E-01  1.434283E-02  0.000000E+00  1.024000E+03  1.608994E+02  3.409949E-17  3.027822E-01    1 
 5.000000E-01  5.000000E-01  5.950000E+01  3.884032E+01  1.690230E+07  1.690941E+07  9.855895E-01  1.441048E-02  0.000000E+00  1.024000E+03  1.608362E+02  3.410488E-17  3.030243E-01    1 
 5.000000E-01  5.000000E-01  6.050000E+01  3.879949E+01  1.689227E+07  1.689940E+07  9.855219E-01  1.447813E-02  0.000000E+00  1.024000E+03  1.607730E+02  3.411027E-17  3.032666E-01    1 
 5.000000E-01  5.000000E-01  6.150000E+01  3.875866E+01  1.688223E+07  1.688939E+07  9.854542E-01  1.454576E-02  0.000000E+00  1.024000E+03  1.607098E+02  3.411566E-17  3.035092E-01    1 
 5.000000E-01  5.000000E-01  6.250000E+01  3.871783E+01  1.687220E+07  1.687938E+07  9.853867E-01  1.461334E-02  0.000000E+00  1.024000E+03  1.606465E+02  3.412106E-17  3.037519E-01    1 
 5.000000E-01  5.000000E-01  6.350000E+01  3.867701E+01  1.686216E+07  1.686937E+07  9.853192E-01  1.468083E-02  0.000000E+00  1.024000E+03  1.605833E+02  3.412647E-17  3.039948E-01    1 
 5.000000E-01  5.000000E-01  6.450000E+01  3.863619E+01  1.685213E+07  1.685936E+07  9.852518E-01  1.474822E-02  0.000000E+00  1.024000E+03  1.605200E+02  3.413188E-17  3.042379E-01    1 
 5.000000E-01  5.000000E-01  6.550000E+01  3.859538E+01  1.684209E+07  1.684935E+07  9.851845E-01  1.481548E-02  0.000000E+00  1.024000E+03  1.604566E+02  3.413729E-17  3.044812E-01    1 
 5.000000E-01  5.000000E-01  6.650000E+01  3.855457E+01  1.683206E+07  1.683934E+07  9.851174E-01  1.488259E-02  0.000000E+00  1.024000E+03  1.603933E+02  3.414271E-17  3.047247E-01    1 
 5.000000E-01  5.000000E-01  6.750000E+01  3.851376E+01  1.682202E+07  1.682933E+07  9.850505E-01  1.494952E-02  0.000000E+00  1.024000E+03  1.603299E+02  3.414814E-17  3.049683E-01    1 
 5.000000E-01  5.000000E-01  6.850000E+01  3.847296E+01  1.681199E+07  1.681932E+07  9.849838E-01  1.501625E-02  0.000000E+00  1.024000E+03  1.602665E+02  3.415357E-17  3.052122E-01    1 
 5.000000E-01  5.000000E-01  6.950000E+01  3.843216E+01  1.680195E+07  1.680931E+07  9.849172E-01  1.508277E-02  0.000000E+00  1.024000E+03  1.602031E+02  3.415901E-17  3.054563E-01    1 
 5.000000E-01  5.000000E-01  7.050000E+01  3.839137E+01  1.679192E+07  1.679930E+07  9.848509E-01  1.514906E-02  0.000000E+00  1.024000E+03  1.601396E+02  3.416445E-17  3.057006E-01    1 
 5.000000E-01  5.000000E-01  7.150000E+01  3.835058E+01  1.678188E+07  1.678929E+07  9.847849E-01  1.521511E-02  0.000000E+00  1.024000E+03  1.600761E+02  3.416989E-17  3.059450E-01    1 
 5.000000E-01  5.000000E-01  7.250000E+01  3.830979E+01  1.677185E+07  1.677928E+07  9.847191E-01  1.528091E-02  0.000000E+00  1.024000E+03  1.600126E+02  3.417535E-17  3.061897E-01    1 
 5.000000E-01  5.000000E-01  7.350000E+01  3.826901E+01  1.676181E+07  1.676927E+07  9.846536E-01  1.534645E-02  0.000000E+00  1.024000E+03  1.599490E+02  3.418080E-17  3.064345E-01    1 
 5.000000E-01  5.000000E-01  7.450000E+01  3.822823E+01  1.675178E+07  1.675926E+07  9.845883E-01  1.541172E-02  0.000000E+00  1.024000E+03  1.598854E+02  3.418627E-17  3.066796E-01    1 
 5.000000E-01  5.000000E-01  7.550000E+01  3.818746E+01  1.674174E+07  1.674925E+07  9.845233E-01  1.547673E-02  0.000000E+00  1.024000E+03  1.598218E+02  3.419173E-17  3.069248E-01    1 
 5.000000E-01  5.000000E-01  7.650000E+01  3.814669E+01  1.673171E+07  1.673924E+07  9.844585E-01  1.554147E-02  0.000000E+00  1.024000E+03  1.597582E+02  3.419721E-17  3.071703E-01    1 
 5.000000E-01  5.000000E-01  7.750000E+01  3.810593E+01  1.672167E+07  1.672923E+07  9.843941E-01  1.560593E-02  0.000000E+00  1.024000E+03  1.596945E+02  3.420268E-17  3.074159E-01    1 
 5.000000E-01  5.000000E-01  7.850000E+01  3.806516E+01  1.671164E+07  1.671921E+07  9.843299E-01  1.567013E-02  0.000000E+00  1.024000E+03  1.596308E+02  3.420817E-17  3.076617E-01    1 
 5.000000E-01  5.000000E-01  7.950000E+01  3.802441E+01  1.670161E+07  1.670920E+07  9.842659E-01  1.573406E-02  0.000000E+00  1.024000E+03  1.595671E+02  3.421366E-17  3.079078E-01    1 
 5.000000E-01  5.000000E-01  8.050000E+01  3.798365E+01  1.669157E+07  1.669919E+07  9.842023E-01  1.579773E-02  0.000000E+00  1.024000E+03  1.595033E+02  3.421915E-17  3.081540E-01    1 
 5.000000E-01  5.000000E-01  8.150000E+01  3.794290E+01  1.668154E+07  1.668918E+07  9.841388E-01  1.586115E-02  0.000000E+00  1.024000E+03  1.594396E+02  3.422465E-17  3.084004E-01    1 
 5.000000E-01  5.000000E-01  8.250000E+01  3.790216E+01  1.667150E+07  1.667917E+07  9.840757E-01  1.592433E-02  0.000000E+00  1.024000E+03  1.593757E+02  3.423015E-17  3.086470E-01    1 
 5.000000E-01  5.000000E-01  8.350000E+01  3.786142E+01  1.666147E+07  1.666915E+07  9.840127E-01  1.598726E-02  0.000000E+00  1.024000E+03  1.593119E+02  3.423566E-17  3.088939E-01    1 
 5.000000E-01  5.000000E-01  8.450000E+01  3.782068E+01  1.665143E+07  1.665914E+07  9.839500E-01  1.604997E-02  0.000000E+00  1.024000E+03  1.592480E+02  3.424118E-17  3.091409E-01    1 
 5.000000E-01  5.000000E-01  8.550000E+01  3.777995E+01  1.664140E+07  1.664913E+07  9.838875E-01  1.611246E-02  0.000000E+00  1.024000E+03  1.591841E+02  3.424670E-17  3.093881E-01    1 
 5.000000E-01  5.000000E-01  8.650000E+01  3.773922E+01  1.663136E+07  1.663911E+07  9.838253E-01  1.617474E-02  0.000000E+00  1.024000E+03  1.591202E+02  3.425222E-17  3.096355E-01    1 
 5.000000E-01  5.000000E-01  8.750000E+01  3.769850E+01  1.662133E+07  1.662910E+07  9.837632E-01  1.623683E-02  0.000000E+00  1.024000E+03  1.590563E+02  3.425775E-17  3.098831E-01    1 
 5.000000E-01  5.000000E-01  8.850000E+01  3.765778E+01  1.661129E+07  1.661909E+07  9.837013E-01  1.629873E-02  0.000000E+00  1.024000E+03  1.589923E+02  3.426329E-17  3.101309E-01    1 
 5.000000E-01  5.000000E-01  8.950000E+01  3.761706E+01  1.660126E+07  1.660908E+07  9.836395E-01  1.636046E-02  0.000000E+00  1.024000E+03  1.589283E+02  3.426883E-17  3.103789E-01    1 
 5.000000E-01  5.000000E-01  9.050000E+01  3.757635E+01  1.659122E+07  1.659906E+07  9.835780E-01  1.642202E-02  0.000000E+00  1.024000E+03  1.588642E+02  3.427438E-17  3.106271E-01    1 
 5.000000E-01  5.000000E-01  9.150000E+01  3.753564E+01  1.658119E+07  1.658905E+07  9.835166E-01  1.648344E-02  0.000000E+00  1.024000E+03  1.588002E+02  3.427993E-17  3.108755E-01    1 
 5.000000E-01  5.000000E-01  9.250000E+01  3.749494E+01  1.657116E+07  1.657904E+07  9.834553E-01  1.654471E-02  0.000000E+00  1.024000E+03  1.587361E+02  3.428549E-17  3.111241E-01    1 
 5.000000E-01  5.000000E-01  9.350000E+01  3.745424E+01  1.656112E+07  1.656902E+07  9.833941E-01  1.660586E-02  0.000000E+00  1.024000E+03  1.586720E+02  3.429105E-17  3.113729E-01    1 
 5.000000E-01  5.000000E-01  9.450000E+01  3.741354E+01  1.655109E+07  1.655901E+07  9.833331E-01  1.666690E-02  0.000000E+00  1.024000E+03  1.586078E+02  3.429662E-17  3.116219E-01    1 
 5.000000E-01  5.000000E-01  9.550000E+01  3.737285E+01  1.654105E+07  1.654899E+07  9.832722E-01  1.672782E-02  0.000000E+00  1.024000E+03  1.585436E+02  3.430219E-17  3.118711E-01    1 
 5.000000E-01  5.000000E-01  9.650000E+01  3.733216E+01  1.653102E+07  1.653898E+07  9.832113E-01  1.678866E-02  0.000000E+00  1.024000E+03  1.584794E+02  3.430777E-17  3.121205E-01    1 
 5.000000E-01  5.000000E-01  9.750000E+01  3.729148E+01  1.652098E+07  1.652897E+07  9.831506E-01  1.684941E-02  0.000000E+00  1.024000E+03  1.584152E+02  3.431336E-17  3.123701E-01    1 
 5.000000E-01  5.000000E-01  9.850000E+01  3.725080E+01  1.651095E+07  1.651895E+07  9.830899E-01  1.691009E-02  0.000000E+00  1.024000E+03  1.583509E+02  3.431895E-17  3.126199E-01    1 
 5.000000E-01  5.000000E-01  9.950000E+01  3.721013E+01  1.650091E+07  1.650894E+07  9.830293E-01  1.697070E-02  0.000000E+00  1.024000E+03  1.582866E+02  3.432454E-17  3.128699E-01    1 
 5.000000E-01  5.000000E-01  1.005000E+02  3.716946E+01  1.649088E+07  1.649892E+07  9.829687E-01  1.703126E-02  0.000000E+00  1.024000E+03  1.582223E+02  3.433014E-17  3.131201E-01    1 
 5.000000E-01  5.000000E-01  1.015000E+02  3.712879E+01  1.648084E+07  1.648891E+07  9.829082E-01  1.709177E-02  0.000000E+00  1.024000E+03  1.581580E+02  3.433575E-17  3.133705E-01    1 
 5.000000E-01  5.000000E-01  1.025000E+02  3.708813E+01  1.647081E+07  1.647890E+07  9.828478E-01  1.715224E-02  0.000000E+00  1.024000E+03  1.580936E+02  3.434136E-17  3.136211E-01    1 
 5.000000E-01  5.000000E-01  1.035000E+02  3.704747E+01  1.646078E+07  1.646888E+07  9.827873E-01  1.721269E-02  0.000000E+00  1.024000E+03  1.580292E+02  3.434698E-17  3.138719E-01    1 
 5.000000E-01  5.000000E-01  1.045000E+02  3.700682E+01  1.645074E+07  1.645887E+07  9.827269E-01  1.727312E-02  0.000000E+00  1.024000E+03  1.579648E+02  3.435260E-17  3.141229E-01    1 
 5.000000E-01  5.000000E-01  1.055000E+02  3.696617E+01  1.644071E+07  1.644885E+07  9.826665E-01  1.733353E-02  0.000000E+00  1.024000E+03  1.579003E+02  3.435823E-17  3.143741E-01    1 
 5.000000E-01  5.000000E-01  1.065000E+02  3.692552E+01  1.643067E+07  1.643884E+07  9.826061E-01  1.739393E-02  0.000000E+00  1.024000E+03  1.578358E+02  3.436386E-17  3.146255E-01    1 
 5.000000E-01  5.000000E-01  1.075000E+02  3.688488E+01  1.642064E+07  1.642882E+07  9.825457E-01  1.745434E-02  0.000000E+00  1.024000E+03  1.577713E+02  3.436950E-17  3.148771E-01    1 
 5.000000E-01  5.000000E-01  1.085000E+02  3.684425E+01  1.641060E+07  1.641881E+07  9.824853E-01  1.751475E-02  0.000000E+00  1.024000E+03  1.577068E+02  3.437514E-17  3.151289E-01    1 
 5.000000E-01  5.000000E-01  1.095000E+02  3.680361E+01  1.640057E+07  1.640879E+07  9.824248E-01  1.757517E-02  0.000000E+00  1.024000E+03  1.576422E+02  3.438079E-17  3.153809E-01    1 
 5.000000E-01  5.000000E-01  1.105000E+02  3.676299E+01  1.639054E+07  1.639878E+07  9.823644E-01  1.763561E-02  0.000000E+00  1.024000E+03  1.575776E+02  3.438645E-17  3.156331E-01    1 
 5.000000E-01  5.000000E-01  1.115000E+02  3.672236E+01  1.638050E+07  1.638877E+07  9.823039E-01  1.769608E-02  0.000000E+00  1.024000E+03  1.575130E+02  3.439211E-17  3.158855E-01    1 
 5.000000E-01  5.000000E-01  1.125000E+02  3.668174E+01  1.637047E+07  1.637875E+07  9.822434E-01  1.775657E-02  0.000000E+00  1.024000E+03  1.574483E+02  3.439777E-17  3.161381E-01    1 
 5.000000E-01  5.000000E-01  1.135000E+02  3.664113E+01  1.636043E+07  1.636874E+07  9.821829E-01  1.781709E-02  0.000000E+00  1.024000E+03  1.573836E+02  3.440344E-17  3.163909E-01    1 
 5.000000E-01  5.000000E-01  1.145000E+02  3.660052E+01  1.635040E+07  1.635872E+07  9.821223E-01  1.787765E-02  0.000000E+00  1.024000E+03  1.573189E+02  3.440912E-17  3.166439E-01    1 
 5.000000E-01  5.000000E-01  1.155000E+02  3.655991E+01  1.634036E+07  1.634871E+07  9.820618E-01  1.793825E-02  0.000000E+00  1.024000E+03  1.572542E+02  3.441480E-17  3.168971E-01    1 
 5.000000E-01  5.000000E-01  1.165000E+02  3.651931E+01  1.633033E+07  1.633869E+07  9.820011E-01  1.799889E-02  0.000000E+00  1.024000E+03  1.571894E+02  3.442049E-17  3.171506E-01    1 
 5.000000E-01  5.000000E-01  1.175000E+02  3.647871E+01  1.632030E+07  1.632868E+07  9.819404E-01  1.805958E-02  0.000000E+00  1.024000E+03  1.571246E+02  3.442618E-17  3.174042E-01    1 
 5.000000E-01  5.000000E-01  1.185000E+02  3.643811E+01  1.631026E+07  1.631866E+07  9.818797E-01  1.812032E-02  0.000000E+00  1.024000E+03  1.570598E+02  3.443188E-17  3.176580E-01    1 
 5.000000E-01  5.000000E-01  1.195000E+02  3.639752E+01  1.630023E+07  1.630865E+07  9.818189E-01  1.818111E-02  0.000000E+00  1.024000E+03  1.569949E+02  3.443758E-17  3.179120E-01    1 
 5.000000E-01  5.000000E-01  1.205000E+02  3.635694E+01  1.629019E+07  1.629863E+07  9.817580E-01  1.824196E-02  0.000000E+00  1.024000E+03  1.569301E+02  3.444329E-17  3.181663E-01    1 
 5.000000E-01  5.000000E-01  1.215000E+02  3.631636E+01  1.628016E+07  1.628862E+07  9.816971E-01  1.830287E-02  0.000000E+00  1.024000E+03  1.568652E+02  3.444901E-17  3.184207E-01    1 
 5.000000E-01  5.000000E-01  1.225000E+02  3.627578E+01  1.627012E+07  1.627860E+07  9.816362E-01  1.836383E-02  0.000000E+00  1.024000E+03  1.568002E+02  3.445473E-17  3.186753E-01    1 
 5.000000E-01  5.000000E-01  1.235000E+02  3.623521E+01  1.626009E+07  1.626859E+07  9.815751E-01  1.842486E-02  0.000000E+00  1.024000E+03  1.567353E+02  3.446046E-17  3.189302E-01    1 
 5.000000E-01  5.000000E-01  1.245000E+02  3.619464E+01  1.625006E+07  1.625857E+07  9.815140E-01  1.848596E-02  0.000000E+00  1.024000E+03  1.566703E+02  3.446619E-17  3.191852E-01    1 
 5.000000E-01  5.000000E-01  1.255000E+02  3.615407E+01  1.624002E+07  1.624856E+07  9.814529E-01  1.854712E-02  0.000000E+00  1.024000E+03  1.566052E+02  3.447192E-17  3.194405E-01    1 
 5.000000E-01  5.000000E-01  1.265000E+02  3.611351E+01  1.622999E+07  1.623854E+07  9.813916E-01  1.860835E-02  0.000000E+00  1.024000E+03  1.565402E+02  3.447767E-17  3.196959E-01    1 
 5.000000E-01  5.000000E-01  1.275000E+02  3.607296E+01  1.621995E+07  1.622853E+07  9.813303E-01  1.866965E-02  0.000000E+00  1.024000E+03  1.564751E+02  3.448342E-17  3.199516E-01    1 
 5.000000E-01  5.000000E-01  1.285000E+02  3.603241E+01  1.620992E+07  1.621851E+07  9.812690E-01  1.873103E-02  0.000000E+00  1.024000E+03  1.564100E+02  3.448917E-17  3.202074E-01    1 
 5.000000E-01  5.000000E-01  1.295000E+02  3.599186E+01  1.619989E+07  1.620850E+07  9.812075E-01  1.879248E-02  0.000000E+00  1.024000E+03  1.563449E+02  3.449493E-17  3.204635E-01    1 
 5.000000E-01  5.000000E-01  1.305000E+02  3.595132E+01  1.618985E+07  1.619848E+07  9.811460E-01  1.885401E-02  0.000000E+00  1.024000E+03  1.562797E+02  3.450069E-17  3.207197E-01    1 
 5.000000E-01  5.000000E-01  1.315000E+02  3.591078E+01  1.617982E+07  1.618847E+07  9.810844E-01  1.891562E-02  0.000000E+00  1.024000E+03  1.562145E+02  3.450646E-17  3.209762E-01    1 
 5.000000E-01  5.000000E-01  1.325000E+02  3.587025E+01  1.616978E+07  1.617845E+07  9.810227E-01  1.897731E-02  0.000000E+00  1.024000E+03  1.561493E+02  3.451224E-17  3.212329E-01    1 
 5.000000E-01  5.000000E-01  1.335000E+02  3.582972E+01  1.615975E+07  1.616844E+07  9.809609E-01  1.903909E-02  0.000000E+00  1.024000E+03  1.560841E+02  3.451802E-17  3.214898E-01    1 
 5.000000E-01  5.000000E-01  1.345000E+02  3.578919E+01  1.614972E+07  1.615842E+07  9.808990E-01  1.910096E-02  0.000000E+00  1.024000E+03  1.560188E+02  3.452381E-17  3.217469E-01    1 
 5.000000E-01  5.000000E-01  1.355000E+02  3.574867E+01  1.613968E+07  1.614841E+07  9.808371E-01  1.916292E-02  0.000000E+00  1.024000E+03  1.559535E+02  3.452960E-17  3.220042E-01    1 
 5.000000E-01  5.000000E-01  1.365000E+02  3.570815E+01  1.612965E+07  1.613839E+07  9.807750E-01  1.922497E-02  0.000000E+00  1.024000E+03  1.558882E+02  3.453540E-17  3.222617E-01    1 
 5.000000E-01  5.000000E-01  1.375000E+02  3.566764E+01  1.611962E+07  1.612838E+07  9.807129E-01  1.928713E-02  0.000000E+00  1.024000E+03  1.558228E+02  3.454121E-17  3.225194E-01    1 
 5.000000E-01  5.000000E-01  1.385000E+02  3.562713E+01  1.610958E+07  1.611836E+07  9.806506E-01  1.934938E-02  0.000000E+00  1.024000E+03  1.557574E+02  3.454701E-17  3.227773E-01    1 
 5.000000E-01  5.000000E-01  1.395000E+02  3.558663E+01  1.609955E+07  1.610835E+07  9.805883E-01  1.941175E-02  0.000000E+00  1.024000E+03  1.556920E+02  3.455283E-17  3.230354E-01    1 
 5.000000E-01  5.000000E-01  1.405000E+02  3.554613E+01  1.608951E+07  1.609833E+07  9.805258E-01  1.947422E-02  0.000000E+00  1.024000E+03  1.556266E+02  3.455865E-17  3.232937E-01    1 
 5.000000E-01  5.000000E-01  1.415000E+02  3.550564E+01  1.607948E+07  1.608832E+07  9.804632E-01  1.953682E-02  0.000000E+00  1.024000E+03  1.555611E+02  3.456448E-17  3.235523E-01    1 
 5.000000E-01  5.000000E-01  1.425000E+02  3.546514E+01  1.606945E+07  1.607830E+07  9.804005E-01  1.959954E-02  0.000000E+00  1.024000E+03  1.554956E+02  3.457031E-17  3.238110E-01    1 
 5.000000E-01  5.000000E-01  1.435000E+02  3.542466E+01  1.605941E+07  1.606829E+07  9.803376E-01  1.966239E-02  0.000000E+00  1.024000E+03  1.554300E+02  3.457615E-17  3.240699E-01    1 
 5.000000E-01  5.000000E-01  1.445000E+02  3.538418E+01  1.604938E+07  1.605827E+07  9.802746E-01  1.972537E-02  0.000000E+00  1.024000E+03  1.553645E+02  3.458199E-17  3.243291E-01    1 
 5.000000E-01  5.000000E-01  1.455000E+02  3.534370E+01  1.603935E+07  1.604826E+07  9.802115E-01  1.978851E-02  0.000000E+00  1.024000E+03  1.552989E+02  3.458784E-17  3.245885E-01    1 
 5.000000E-01  5.000000E-01  1.465000E+02  3.530323E+01  1.602931E+07  1.603824E+07  9.801482E-01  1.985179E-02  0.000000E+00  1.024000E+03  1.552333E+02  3.459370E-17  3.248480E-01    1 
 5.000000E-01  5.000000E-01  1.475000E+02  3.526276E+01  1.601928E+07  1.602822E+07  9.800848E-01  1.991524E-02  0.000000E+00  1.024000E+03  1.551676E+02  3.459956E-17  3.251078E-01    1 
 5.000000E-01  5.000000E-01  1.485000E+02  3.522229E+01  1.600925E+07  1.601821E+07  9.800211E-01  1.997887E-02  0.000000E+00  1.024000E+03  1.551020E+02  3.460542E-17  3.253678E-01    1 
 5.000000E-01  5.000000E-01  1.495000E+02  3.518183E+01  1.599921E+07  1.600819E+07  9.799573E-01  2.004268E-02  0.000000E+00  1.024000E+03  1.550363E+02  3.461129E-17  3.256280E-01    1 
 5.000000E-01  5.000000E-01  1.505000E+02  3.514138E+01  1.598918E+07  1.599818E+07  9.798933E-01  2.010668E-02  0.000000E+00  1.024000E+03  1.549705E+02  3.461717E-17  3.258884E-01    1 
 5.000000E-01  5.000000E-01  1.515000E+02  3.510093E+01  1.597914E+07  1.598816E+07  9.798291E-01  2.017090E-02  0.000000E+00  1.024000E+03  1.549048E+02  3.462306E-17  3.261490E-01    1 
 5.000000E-01  5.000000E-01  1.525000E+02  3.506048E+01  1.596911E+07  1.597815E+07  9.797647E-01  2.023534E-02  0.000000E+00  1.024000E+03  1.548390E+02  3.462894E-17  3.264098E-01    1 
 5.000000E-01  5.000000E-01  1.535000E+02  3.502004E+01  1.595908E+07  1.596813E+07  9.797000E-01  2.030002E-02  0.000000E+00  1.024000E+03  1.547732E+02  3.463484E-17  3.266708E-01    1 
 5.000000E-01  5.000000E-01  1.545000E+02  3.497960E+01  1.594904E+07  1.595812E+07  9.796350E-01  2.036495E-02  0.000000E+00  1.024000E+03  1.547074E+02  3.464074E-17  3.269320E-01    1 
 5.000000E-01  5.000000E-01  1.555000E+02  3.493917E+01  1.593901E+07  1.594810E+07  9.795698E-01  2.043017E-02  0.000000E+00  1.024000E+03  1.546415E+02  3.464665E-17  3.271935E-01    1 
 5.000000E-01  5.000000E-01  1.565000E+02  3.489874E+01  1.592898E+07  1.593809E+07  9.795043E-01  2.049567E-02  0.000000E+00  1.024000E+03  1.545756E+02  3.465256E-17  3.274551E-01    1 