TITLE = "  3.74000E+04 [y]"
VARIABLES="X [m]","Y [m]","Z [m]","Temperature [C]","Liquid Pressure [Pa]","Gas Pressure [Pa]","Liquid Saturation","Gas Saturation","Hydrate Saturation","Liquid Density [kg/m^3]","Gas Density [kg/m^3]","Permeability X [m^2]","Porosity","Material ID"
ZONE T="3.74000E+04", STRANDID=1, SOLUTIONTIME=3.74000E+04, I=1, J=1, K=1000, DATAPACKING=POINT
 5.000000E-01  5.000000E-01  5.000000E-01  4.271956E+01  1.752853E+07  0.000000E+00  1.000000E+00  0.000000E+00  0.000000E+00  1.024000E+03  0.000000E+00  3.379583E-17  2.890648E-01    1 
 5.000000E-01  5.000000E-01  1.500000E+00  4.267856E+01  1.751849E+07  0.000000E+00  1.000000E+00  0.000000E+00  0.000000E+00  1.024000E+03  0.000000E+00  3.380093E-17  2.892959E-01    1 
 5.000000E-01  5.000000E-01  2.500000E+00  4.263756E+01  1.750845E+07  0.000000E+00  1.000000E+00  0.000000E+00  0.000000E+00  1.024000E+03  0.000000E+00  3.380603E-17  2.895273E-01    1 
 5.000000E-01  5.000000E-01  3.500000E+00  4.259657E+01  1.749842E+07  0.000000E+00  1.000000E+00  0.000000E+00  0.000000E+00  1.024000E+03  0.000000E+00  3.381113E-17  2.897588E-01    1 
 5.000000E-01  5.000000E-01  4.500000E+00  4.255558E+01  1.748838E+07  0.000000E+00  1.000000E+00  0.000000E+00  0.000000E+00  1.024000E+03  0.000000E+00  3.381624E-17  2.899905E-01    1 
 5.000000E-01  5.000000E-01  5.500000E+00  4.251459E+01  1.747835E+07  0.000000E+00  1.000000E+00  0.000000E+00  0.000000E+00  1.024000E+03  0.000000E+00  3.382135E-17  2.902224E-01    1 
 5.000000E-01  5.000000E-01  6.500000E+00  4.247361E+01  1.746831E+07  0.000000E+00  1.000000E+00  0.000000E+00  0.000000E+00  1.024000E+03  0.000000E+00  3.382647E-17  2.904545E-01    1 
 5.000000E-01  5.000000E-01  7.500000E+00  4.243264E+01  1.745828E+07  0.000000E+00  1.000000E+00  0.000000E+00  0.000000E+00  1.024000E+03  0.000000E+00  3.383160E-17  2.906868E-01    1 
 5.000000E-01  5.000000E-01  8.500000E+00  4.239167E+01  1.744824E+07  0.000000E+00  1.000000E+00  0.000000E+00  0.000000E+00  1.024000E+03  0.000000E+00  3.383673E-17  2.909192E-01    1 
 5.000000E-01  5.000000E-01  9.500000E+00  4.235071E+01  1.743821E+07  0.000000E+00  1.000000E+00  0.000000E+00  0.000000E+00  1.024000E+03  0.000000E+00  3.384186E-17  2.911519E-01    1 
 5.000000E-01  5.000000E-01  1.050000E+01  4.230975E+01  1.742817E+07  0.000000E+00  1.000000E+00  0.000000E+00  0.000000E+00  1.024000E+03  0.000000E+00  3.384700E-17  2.913847E-01    1 
 5.000000E-01  5.000000E-01  1.150000E+01  4.226880E+01  1.741814E+07  0.000000E+00  1.000000E+00  0.000000E+00  0.000000E+00  1.024000E+03  0.000000E+00  3.385214E-17  2.916177E-01    1 
 5.000000E-01  5.000000E-01  1.250000E+01  4.222785E+01  1.740810E+07  0.000000E+00  1.000000E+00  0.000000E+00  0.000000E+00  1.024000E+03  0.000000E+00  3.385729E-17  2.918509E-01    1 
 5.000000E-01  5.000000E-01  1.350000E+01  4.218691E+01  1.739807E+07  0.000000E+00  1.000000E+00  0.000000E+00  0.000000E+00  1.024000E+03  0.000000E+00  3.386244E-17  2.920843E-01    1 
 5.000000E-01  5.000000E-01  1.450000E+01  4.214597E+01  1.738803E+07  0.000000E+00  1.000000E+00  0.000000E+00  0.000000E+00  1.024000E+03  0.000000E+00  3.386760E-17  2.923179E-01    1 
 5.000000E-01  5.000000E-01  1.550000E+01  4.210504E+01  1.737800E+07  0.000000E+00  1.000000E+00  0.000000E+00  0.000000E+00  1.024000E+03  0.000000E+00  3.387276E-17  2.925516E-01    1 
 5.000000E-01  5.000000E-01  1.650000E+01  4.206412E+01  1.736796E+07  0.000000E+00  1.000000E+00  0.000000E+00  0.000000E+00  1.024000E+03  0.000000E+00  3.387793E-17  2.927856E-01    1 
 5.000000E-01  5.000000E-01  1.750000E+01  4.202320E+01  1.735793E+07  0.000000E+00  1.000000E+00  0.000000E+00  0.000000E+00  1.024000E+03  0.000000E+00  3.388310E-17  2.930197E-01    1 
 5.000000E-01  5.000000E-01  1.850000E+01  4.198228E+01  1.734789E+07  0.000000E+00  1.000000E+00  0.000000E+00  0.000000E+00  1.024000E+03  0.000000E+00  3.388828E-17  2.932541E-01    1 
 5.000000E-01  5.000000E-01  1.950000E+01  4.194137E+01  1.733786E+07  0.000000E+00  1.000000E+00  0.000000E+00  0.000000E+00  1.024000E+03  0.000000E+00  3.389346E-17  2.934886E-01    1 
 5.000000E-01  5.000000E-01  2.050000E+01  4.190046E+01  1.732782E+07  0.000000E+00  1.000000E+00  0.000000E+00  0.000000E+00  1.024000E+03  0.000000E+00  3.389865E-17  2.937233E-01    1 
 5.000000E-01  5.000000E-01  2.150000E+01  4.185956E+01  1.731778E+07  0.000000E+00  1.000000E+00  0.000000E+00  0.000000E+00  1.024000E+03  0.000000E+00  3.390384E-17  2.939581E-01    1 
 5.000000E-01  5.000000E-01  2.250000E+01  4.181867E+01  1.730775E+07  0.000000E+00  1.000000E+00  0.000000E+00  0.000000E+00  1.024000E+03  0.000000E+00  3.390904E-17  2.941932E-01    1 
 5.000000E-01  5.000000E-01  2.350000E+01  4.177778E+01  1.729771E+07  0.000000E+00  1.000000E+00  0.000000E+00  0.000000E+00  1.024000E+03  0.000000E+00  3.391424E-17  2.944285E-01    1 
 5.000000E-01  5.000000E-01  2.450000E+01  4.173689E+01  1.728768E+07  0.000000E+00  1.000000E+00  0.000000E+00  0.000000E+00  1.024000E+03  0.000000E+00  3.391945E-17  2.946639E-01    1 
 5.000000E-01  5.000000E-01  2.550000E+01  4.169601E+01  1.727764E+07  0.000000E+00  1.000000E+00  0.000000E+00  0.000000E+00  1.024000E+03  0.000000E+00  3.392466E-17  2.948996E-01    1 
 5.000000E-01  5.000000E-01  2.650000E+01  4.165514E+01  1.726761E+07  0.000000E+00  1.000000E+00  0.000000E+00  0.000000E+00  1.024000E+03  0.000000E+00  3.392988E-17  2.951354E-01    1 
 5.000000E-01  5.000000E-01  2.750000E+01  4.161427E+01  1.725757E+07  0.000000E+00  1.000000E+00  0.000000E+00  0.000000E+00  1.024000E+03  0.000000E+00  3.393510E-17  2.953714E-01    1 
 5.000000E-01  5.000000E-01  2.850000E+01  4.157341E+01  1.724754E+07  0.000000E+00  1.000000E+00  0.000000E+00  0.000000E+00  1.024000E+03  0.000000E+00  3.394033E-17  2.956076E-01    1 
 5.000000E-01  5.000000E-01  2.950000E+01  4.153255E+01  1.723750E+07  0.000000E+00  1.000000E+00  0.000000E+00  0.000000E+00  1.024000E+03  0.000000E+00  3.394556E-17  2.958440E-01    1 
 5.000000E-01  5.000000E-01  3.050000E+01  4.149169E+01  1.722747E+07  0.000000E+00  1.000000E+00  0.000000E+00  0.000000E+00  1.024000E+03  0.000000E+00  3.395080E-17  2.960806E-01    1 
 5.000000E-01  5.000000E-01  3.150000E+01  4.145085E+01  1.721743E+07  0.000000E+00  1.000000E+00  0.000000E+00  0.000000E+00  1.024000E+03  0.000000E+00  3.395604E-17  2.963173E-01    1 
 5.000000E-01  5.000000E-01  3.250000E+01  4.141000E+01  1.720740E+07  0.000000E+00  1.000000E+00  0.000000E+00  0.000000E+00  1.024000E+03  0.000000E+00  3.396129E-17  2.965543E-01    1 
 5.000000E-01  5.000000E-01  3.350000E+01  4.136917E+01  1.719736E+07  0.000000E+00  1.000000E+00  0.000000E+00  0.000000E+00  1.024000E+03  0.000000E+00  3.396654E-17  2.967915E-01    1 
 5.000000E-01  5.000000E-01  3.450000E+01  4.132833E+01  1.718733E+07  0.000000E+00  1.000000E+00  0.000000E+00  0.000000E+00  1.024000E+03  0.000000E+00  3.397180E-17  2.970288E-01    1 
 5.000000E-01  5.000000E-01  3.550000E+01  4.128751E+01  1.717729E+07  0.000000E+00  1.000000E+00  0.000000E+00  0.000000E+00  1.024000E+03  0.000000E+00  3.397706E-17  2.972663E-01    1 
 5.000000E-01  5.000000E-01  3.650000E+01  4.124669E+01  1.716726E+07  0.000000E+00  1.000000E+00  0.000000E+00  0.000000E+00  1.024000E+03  0.000000E+00  3.398233E-17  2.975040E-01    1 
 5.000000E-01  5.000000E-01  3.750000E+01  4.120587E+01  1.715722E+07  0.000000E+00  1.000000E+00  0.000000E+00  0.000000E+00  1.024000E+03  0.000000E+00  3.398760E-17  2.977419E-01    1 
 5.000000E-01  5.000000E-01  3.850000E+01  4.116506E+01  1.714718E+07  0.000000E+00  1.000000E+00  0.000000E+00  0.000000E+00  1.024000E+03  0.000000E+00  3.399288E-17  2.979800E-01    1 
 5.000000E-01  5.000000E-01  3.950000E+01  4.112425E+01  1.713715E+07  0.000000E+00  1.000000E+00  0.000000E+00  0.000000E+00  1.024000E+03  0.000000E+00  3.399816E-17  2.982183E-01    1 
 5.000000E-01  5.000000E-01  4.050000E+01  4.108345E+01  1.712711E+07  0.000000E+00  1.000000E+00  0.000000E+00  0.000000E+00  1.024000E+03  0.000000E+00  3.400345E-17  2.984568E-01    1 
 5.000000E-01  5.000000E-01  4.150000E+01  4.104265E+01  1.711708E+07  0.000000E+00  1.000000E+00  0.000000E+00  0.000000E+00  1.024000E+03  0.000000E+00  3.400874E-17  2.986955E-01    1 
 5.000000E-01  5.000000E-01  4.250000E+01  4.100186E+01  1.710704E+07  0.000000E+00  1.000000E+00  0.000000E+00  0.000000E+00  1.024000E+03  0.000000E+00  3.401404E-17  2.989343E-01    1 
 5.000000E-01  5.000000E-01  4.350000E+01  4.096108E+01  1.709701E+07  0.000000E+00  1.000000E+00  0.000000E+00  0.000000E+00  1.024000E+03  0.000000E+00  3.401934E-17  2.991734E-01    1 
 5.000000E-01  5.000000E-01  4.450000E+01  4.092030E+01  1.708697E+07  0.000000E+00  1.000000E+00  0.000000E+00  0.000000E+00  1.024000E+03  0.000000E+00  3.402465E-17  2.994126E-01    1 
 5.000000E-01  5.000000E-01  4.550000E+01  4.087953E+01  1.707694E+07  0.000000E+00  1.000000E+00  0.000000E+00  0.000000E+00  1.024000E+03  0.000000E+00  3.402996E-17  2.996521E-01    1 
 5.000000E-01  5.000000E-01  4.650000E+01  4.083876E+01  1.706690E+07  0.000000E+00  1.000000E+00  0.000000E+00  0.000000E+00  1.024000E+03  0.000000E+00  3.403528E-17  2.998917E-01    1 
 5.000000E-01  5.000000E-01  4.750000E+01  4.079799E+01  1.705687E+07  0.000000E+00  1.000000E+00  0.000000E+00  0.000000E+00  1.024000E+03  0.000000E+00  3.404060E-17  3.001315E-01    1 
 5.000000E-01  5.000000E-01  4.850000E+01  4.075723E+01  1.704683E+07  0.000000E+00  1.000000E+00  0.000000E+00  0.000000E+00  1.024000E+03  0.000000E+00  3.404593E-17  3.003715E-01    1 
 5.000000E-01  5.000000E-01  4.950000E+01  4.071648E+01  1.703680E+07  0.000000E+00  1.000000E+00  0.000000E+00  0.000000E+00  1.024000E+03  0.000000E+00  3.405126E-17  3.006117E-01    1 
 5.000000E-01  5.000000E-01  5.050000E+01  4.067573E+01  1.702676E+07  0.000000E+00  1.000000E+00  0.000000E+00  0.000000E+00  1.024000E+03  0.000000E+00  3.405660E-17  3.008521E-01    1 
 5.000000E-01  5.000000E-01  5.150000E+01  4.063499E+01  1.701673E+07  0.000000E+00  1.000000E+00  0.000000E+00  0.000000E+00  1.024000E+03  0.000000E+00  3.406195E-17  3.010927E-01    1 
 5.000000E-01  5.000000E-01  5.250000E+01  4.059425E+01  1.700669E+07  0.000000E+00  1.000000E+00  0.000000E+00  0.000000E+00  1.024000E+03  0.000000E+00  3.406729E-17  3.013335E-01    1 
 5.000000E-01  5.000000E-01  5.350000E+01  4.055352E+01  1.699665E+07  0.000000E+00  1.000000E+00  0.000000E+00  0.000000E+00  1.024000E+03  0.000000E+00  3.407265E-17  3.015744E-01    1 
 5.000000E-01  5.000000E-01  5.450000E+01  4.051279E+01  1.698662E+07  0.000000E+00  1.000000E+00  0.000000E+00  0.000000E+00  1.024000E+03  0.000000E+00  3.407801E-17  3.018156E-01    1 
 5.000000E-01  5.000000E-01  5.550000E+01  4.047207E+01  1.697658E+07  0.000000E+00  1.000000E+00  0.000000E+00  0.000000E+00  1.024000E+03  0.000000E+00  3.408337E-17  3.020570E-01    1 
 5.000000E-01  5.000000E-01  5.650000E+01  4.043136E+01  1.696655E+07  0.000000E+00  1.000000E+00  0.000000E+00  0.000000E+00  1.024000E+03  0.000000E+00  3.408874E-17  3.022985E-01    1 
 5.000000E-01  5.000000E-01  5.750000E+01  4.039064E+01  1.695651E+07  0.000000E+00  1.000000E+00  0.000000E+00  0.000000E+00  1.024000E+03  0.000000E+00  3.409411E-17  3.025403E-01    1 
 5.000000E-01  5.000000E-01  5.850000E+01  4.034994E+01  1.694648E+07  0.000000E+00  1.000000E+00  0.000000E+00  0.000000E+00  1.024000E+03  0.000000E+00  3.409949E-17  3.027822E-01    1 
 5.000000E-01  5.000000E-01  5.950000E+01  4.030924E+01  1.693644E+07  0.000000E+00  1.000000E+00  0.000000E+00  0.000000E+00  1.024000E+03  0.000000E+00  3.410488E-17  3.030243E-01    1 
 5.000000E-01  5.000000E-01  6.050000E+01  4.026854E+01  1.692641E+07  0.000000E+00  1.000000E+00  0.000000E+00  0.000000E+00  1.024000E+03  0.000000E+00  3.411027E-17  3.032666E-01    1 
 5.000000E-01  5.000000E-01  6.150000E+01  4.022785E+01  1.691637E+07  0.000000E+00  1.000000E+00  0.000000E+00  0.000000E+00  1.024000E+03  0.000000E+00  3.411566E-17  3.035092E-01    1 
 5.000000E-01  5.000000E-01  6.250000E+01  4.018717E+01  1.690634E+07  0.000000E+00  1.000000E+00  0.000000E+00  0.000000E+00  1.024000E+03  0.000000E+00  3.412106E-17  3.037519E-01    1 
 5.000000E-01  5.000000E-01  6.350000E+01  4.014649E+01  1.689630E+07  0.000000E+00  1.000000E+00  0.000000E+00  0.000000E+00  1.024000E+03  0.000000E+00  3.412647E-17  3.039948E-01    1 
 5.000000E-01  5.000000E-01  6.450000E+01  4.010582E+01  1.688627E+07  0.000000E+00  1.000000E+00  0.000000E+00  0.000000E+00  1.024000E+03  0.000000E+00  3.413188E-17  3.042379E-01    1 
 5.000000E-01  5.000000E-01  6.550000E+01  4.006515E+01  1.687623E+07  0.000000E+00  1.000000E+00  0.000000E+00  0.000000E+00  1.024000E+03  0.000000E+00  3.413729E-17  3.044812E-01    1 
 5.000000E-01  5.000000E-01  6.650000E+01  4.002448E+01  1.686620E+07  0.000000E+00  1.000000E+00  0.000000E+00  0.000000E+00  1.024000E+03  0.000000E+00  3.414271E-17  3.047247E-01    1 
 5.000000E-01  5.000000E-01  6.750000E+01  3.998383E+01  1.685616E+07  0.000000E+00  1.000000E+00  0.000000E+00  0.000000E+00  1.024000E+03  0.000000E+00  3.414814E-17  3.049683E-01    1 
 5.000000E-01  5.000000E-01  6.850000E+01  3.994317E+01  1.684612E+07  0.000000E+00  1.000000E+00  0.000000E+00  0.000000E+00  1.024000E+03  0.000000E+00  3.415357E-17  3.052122E-01    1 
 5.000000E-01  5.000000E-01  6.950000E+01  3.990253E+01  1.683609E+07  0.000000E+00  1.000000E+00  0.000000E+00  0.000000E+00  1.024000E+03  0.000000E+00  3.415901E-17  3.054563E-01    1 
 5.000000E-01  5.000000E-01  7.050000E+01  3.986189E+01  1.682605E+07  0.000000E+00  1.000000E+00  0.000000E+00  0.000000E+00  1.024000E+03  0.000000E+00  3.416445E-17  3.057006E-01    1 
 5.000000E-01  5.000000E-01  7.150000E+01  3.982125E+01  1.681602E+07  0.000000E+00  1.000000E+00  0.000000E+00  0.000000E+00  1.024000E+03  0.000000E+00  3.416989E-17  3.059450E-01    1 
 5.000000E-01  5.000000E-01  7.250000E+01  3.978062E+01  1.680598E+07  0.000000E+00  1.000000E+00  0.000000E+00  0.000000E+00  1.024000E+03  0.000000E+00  3.417535E-17  3.061897E-01    1 
 5.000000E-01  5.000000E-01  7.350000E+01  3.973999E+01  1.679595E+07  0.000000E+00  1.000000E+00  0.000000E+00  0.000000E+00  1.024000E+03  0.000000E+00  3.418080E-17  3.064345E-01    1 
 5.000000E-01  5.000000E-01  7.450000E+01  3.969937E+01  1.678591E+07  0.000000E+00  1.000000E+00  0.000000E+00  0.000000E+00  1.024000E+03  0.000000E+00  3.418627E-17  3.066796E-01    1 
 5.000000E-01  5.000000E-01  7.550000E+01  3.965876E+01  1.677588E+07  0.000000E+00  1.000000E+00  0.000000E+00  0.000000E+00  1.024000E+03  0.000000E+00  3.419173E-17  3.069248E-01    1 
 5.000000E-01  5.000000E-01  7.650000E+01  3.961815E+01  1.676584E+07  0.000000E+00  1.000000E+00  0.000000E+00  0.000000E+00  1.024000E+03  0.000000E+00  3.419721E-17  3.071703E-01    1 
 5.000000E-01  5.000000E-01  7.750000E+01  3.957754E+01  1.675581E+07  0.000000E+00  1.000000E+00  0.000000E+00  0.000000E+00  1.024000E+03  0.000000E+00  3.420268E-17  3.074159E-01    1 
 5.000000E-01  5.000000E-01  7.850000E+01  3.953694E+01  1.674577E+07  0.000000E+00  1.000000E+00  0.000000E+00  0.000000E+00  1.024000E+03  0.000000E+00  3.420817E-17  3.076617E-01    1 
 5.000000E-01  5.000000E-01  7.950000E+01  3.949635E+01  1.673574E+07  0.000000E+00  1.000000E+00  0.000000E+00  0.000000E+00  1.024000E+03  0.000000E+00  3.421366E-17  3.079078E-01    1 
 5.000000E-01  5.000000E-01  8.050000E+01  3.945576E+01  1.672570E+07  0.000000E+00  1.000000E+00  0.000000E+00  0.000000E+00  1.024000E+03  0.000000E+00  3.421915E-17  3.081540E-01    1 
 5.000000E-01  5.000000E-01  8.150000E+01  3.941518E+01  1.671566E+07  0.000000E+00  1.000000E+00  0.000000E+00  0.000000E+00  1.024000E+03  0.000000E+00  3.422465E-17  3.084004E-01    1 
 5.000000E-01  5.000000E-01  8.250000E+01  3.937460E+01  1.670563E+07  0.000000E+00  1.000000E+00  0.000000E+00  0.000000E+00  1.024000E+03  0.000000E+00  3.423015E-17  3.086470E-01    1 
 5.000000E-01  5.000000E-01  8.350000E+01  3.933403E+01  1.669559E+07  0.000000E+00  1.000000E+00  0.000000E+00  0.000000E+00  1.024000E+03  0.000000E+00  3.423566E-17  3.088939E-01    1 
 5.000000E-01  5.000000E-01  8.450000E+01  3.929346E+01  1.668556E+07  0.000000E+00  1.000000E+00  0.000000E+00  0.000000E+00  1.024000E+03  0.000000E+00  3.424118E-17  3.091409E-01    1 
 5.000000E-01  5.000000E-01  8.550000E+01  3.925290E+01  1.667552E+07  0.000000E+00  1.000000E+00  0.000000E+00  0.000000E+00  1.024000E+03  0.000000E+00  3.424670E-17  3.093881E-01    1 
 5.000000E-01  5.000000E-01  8.650000E+01  3.921235E+01  1.666549E+07  0.000000E+00  1.000000E+00  0.000000E+00  0.000000E+00  1.024000E+03  0.000000E+00  3.425222E-17  3.096355E-01    1 
 5.000000E-01  5.000000E-01  8.750000E+01  3.917180E+01  1.665545E+07  0.000000E+00  1.000000E+00  0.000000E+00  0.000000E+00  1.024000E+03  0.000000E+00  3.425775E-17  3.098831E-01    1 
 5.000000E-01  5.000000E-01  8.850000E+01  3.913125E+01  1.664542E+07  0.000000E+00  1.000000E+00  0.000000E+00  0.000000E+00  1.024000E+03  0.000000E+00  3.426329E-17  3.101309E-01    1 
 5.000000E-01  5.000000E-01  8.950000E+01  3.909071E+01  1.663538E+07  0.000000E+00  1.000000E+00  0.000000E+00  0.000000E+00  1.024000E+03  0.000000E+00  3.426883E-17  3.103789E-01    1 
 5.000000E-01  5.000000E-01  9.050000E+01  3.905018E+01  1.662535E+07  0.000000E+00  1.000000E+00  0.000000E+00  0.000000E+00  1.024000E+03  0.000000E+00  3.427438E-17  3.106271E-01    1 
 5.000000E-01  5.000000E-01  9.150000E+01  3.900965E+01  1.661531E+07  0.000000E+00  1.000000E+00  0.000000E+00  0.000000E+00  1.024000E+03  0.000000E+00  3.427993E-17  3.108755E-01    1 
 5.000000E-01  5.000000E-01  9.250000E+01  3.896912E+01  1.660528E+07  0.000000E+00  1.000000E+00  0.000000E+00  0.000000E+00  1.024000E+03  0.000000E+00  3.428549E-17  3.111241E-01    1 
 5.000000E-01  5.000000E-01  9.350000E+01  3.892861E+01  1.659524E+07  0.000000E+00  1.000000E+00  0.000000E+00  0.000000E+00  1.024000E+03  0.000000E+00  3.429105E-17  3.113729E-01    1 
 5.000000E-01  5.000000E-01  9.450000E+01  3.888809E+01  1.658520E+07  0.000000E+00  1.000000E+00  0.000000E+00  0.000000E+00  1.024000E+03  0.000000E+00  3.429662E-17  3.116219E-01    1 
 5.000000E-01  5.000000E-01  9.550000E+01  3.884759E+01  1.657517E+07  0.000000E+00  1.000000E+00  0.000000E+00  0.000000E+00  1.024000E+03  0.000000E+00  3.430219E-17  3.118711E-01    1 
 5.000000E-01  5.000000E-01  9.650000E+01  3.880708E+01  1.656513E+07  0.000000E+00  1.000000E+00  0.000000E+00  0.000000E+00  1.024000E+03  0.000000E+00  3.430777E-17  3.121205E-01    1 
 5.000000E-01  5.000000E-01  9.750000E+01  3.876659E+01  1.655510E+07  0.000000E+00  1.000000E+00  0.000000E+00  0.000000E+00  1.024000E+03  0.000000E+00  3.431336E-17  3.123701E-01    1 
 5.000000E-01  5.000000E-01  9.850000E+01  3.872610E+01  1.654506E+07  0.000000E+00  1.000000E+00  0.000000E+00  0.000000E+00  1.024000E+03  0.000000E+00  3.431895E-17  3.126199E-01    1 
 5.000000E-01  5.000000E-01  9.950000E+01  3.868561E+01  1.653503E+07  0.000000E+00  1.000000E+00  0.000000E+00  0.000000E+00  1.024000E+03  0.000000E+00  3.432454E-17  3.128699E-01    1 
 5.000000E-01  5.000000E-01  1.005000E+02  3.864513E+01  1.652499E+07  0.000000E+00  1.000000E+00  0.000000E+00  0.000000E+00  1.024000E+03  0.000000E+00  3.433014E-17  3.131201E-01    1 
 5.000000E-01  5.000000E-01  1.015000E+02  3.860466E+01  1.651496E+07  0.000000E+00  1.000000E+00  0.000000E+00  0.000000E+00  1.024000E+03  0.000000E+00  3.433575E-17  3.133705E-01    1 
 5.000000E-01  5.000000E-01  1.025000E+02  3.856419E+01  1.650492E+07  0.000000E+00  1.000000E+00  0.000000E+00  0.000000E+00  1.024000E+03  0.000000E+00  3.434136E-17  3.136211E-01    1 
 5.000000E-01  5.000000E-01  1.035000E+02  3.852372E+01  1.649489E+07  0.000000E+00  1.000000E+00  0.000000E+00  0.000000E+00  1.024000E+03  0.000000E+00  3.434698E-17  3.138719E-01    1 
 5.000000E-01  5.000000E-01  1.045000E+02  3.848326E+01  1.648485E+07  0.000000E+00  1.000000E+00  0.000000E+00  0.000000E+00  1.024000E+03  0.000000E+00  3.435260E-17  3.141229E-01    1 
 5.000000E-01  5.000000E-01  1.055000E+02  3.844281E+01  1.647481E+07  0.000000E+00  1.000000E+00  0.000000E+00  0.000000E+00  1.024000E+03  0.000000E+00  3.435823E-17  3.143741E-01    1 
 5.000000E-01  5.000000E-01  1.065000E+02  3.840236E+01  1.646478E+07  0.000000E+00  1.000000E+00  0.000000E+00  0.000000E+00  1.024000E+03  0.000000E+00  3.436386E-17  3.146255E-01    1 
 5.000000E-01  5.000000E-01  1.075000E+02  3.836192E+01  1.645474E+07  0.000000E+00  1.000000E+00  0.000000E+00  0.000000E+00  1.024000E+03  0.000000E+00  3.436950E-17  3.148771E-01    1 
 5.000000E-01  5.000000E-01  1.085000E+02  3.832148E+01  1.644471E+07  0.000000E+00  1.000000E+00  0.000000E+00  0.000000E+00  1.024000E+03  0.000000E+00  3.437514E-17  3.151289E-01    1 
 5.000000E-01  5.000000E-01  1.095000E+02  3.828105E+01  1.643467E+07  0.000000E+00  1.000000E+00  0.000000E+00  0.000000E+00  1.024000E+03  0.000000E+00  3.438079E-17  3.153809E-01    1 
 5.000000E-01  5.000000E-01  1.105000E+02  3.824063E+01  1.642464E+07  0.000000E+00  1.000000E+00  0.000000E+00  0.000000E+00  1.024000E+03  0.000000E+00  3.438645E-17  3.156331E-01    1 
 5.000000E-01  5.000000E-01  1.115000E+02  3.820021E+01  1.641460E+07  0.000000E+00  1.000000E+00  0.000000E+00  0.000000E+00  1.024000E+03  0.000000E+00  3.439211E-17  3.158855E-01    1 
 5.000000E-01  5.000000E-01  1.125000E+02  3.815979E+01  1.640457E+07  0.000000E+00  1.000000E+00  0.000000E+00  0.000000E+00  1.024000E+03  0.000000E+00  3.439777E-17  3.161381E-01    1 
 5.000000E-01  5.000000E-01  1.135000E+02  3.811938E+01  1.639453E+07  0.000000E+00  1.000000E+00  0.000000E+00  0.000000E+00  1.024000E+03  0.000000E+00  3.440344E-17  3.163909E-01    1 
 5.000000E-01  5.000000E-01  1.145000E+02  3.807898E+01  1.638450E+07  0.000000E+00  1.000000E+00  0.000000E+00  0.000000E+00  1.024000E+03  0.000000E+00  3.440912E-17  3.166439E-01    1 
 5.000000E-01  5.000000E-01  1.155000E+02  3.803858E+01  1.637446E+07  0.000000E+00  1.000000E+00  0.000000E+00  0.000000E+00  1.024000E+03  0.000000E+00  3.441480E-17  3.168971E-01    1 
 5.000000E-01  5.000000E-01  1.165000E+02  3.799819E+01  1.636442E+07  0.000000E+00  1.000000E+00  0.000000E+00  0.000000E+00  1.024000E+03  0.000000E+00  3.442049E-17  3.171506E-01    1 
 5.000000E-01  5.000000E-01  1.175000E+02  3.795780E+01  1.635439E+07  0.000000E+00  1.000000E+00  0.000000E+00  0.000000E+00  1.024000E+03  0.000000E+00  3.442618E-17  3.174042E-01    1 
 5.000000E-01  5.000000E-01  1.185000E+02  3.791742E+01  1.634435E+07  0.000000E+00  1.000000E+00  0.000000E+00  0.000000E+00  1.024000E+03  0.000000E+00  3.443188E-17  3.176580E-01    1 
 5.000000E-01  5.000000E-01  1.195000E+02  3.787704E+01  1.633432E+07  0.000000E+00  1.000000E+00  0.000000E+00  0.000000E+00  1.024000E+03  0.000000E+00  3.443758E-17  3.179120E-01    1 
 5.000000E-01  5.000000E-01  1.205000E+02  3.783667E+01  1.632428E+07  0.000000E+00  1.000000E+00  0.000000E+00  0.000000E+00  1.024000E+03  0.000000E+00  3.444329E-17  3.181663E-01    1 
 5.000000E-01  5.000000E-01  1.215000E+02  3.779630E+01  1.631425E+07  0.000000E+00  1.000000E+00  0.000000E+00  0.000000E+00  1.024000E+03  0.000000E+00  3.444901E-17  3.184207E-01    1 
 5.000000E-01  5.000000E-01  1.225000E+02  3.775594E+01  1.630421E+07  0.000000E+00  1.000000E+00  0.000000E+00  0.000000E+00  1.024000E+03  0.000000E+00  3.445473E-17  3.186753E-01    1 
 5.000000E-01  5.000000E-01  1.235000E+02  3.771559E+01  1.629418E+07  0.000000E+00  1.000000E+00  0.000000E+00  0.000000E+00  1.024000E+03  0.000000E+00  3.446046E-17  3.189302E-01    1 
 5.000000E-01  5.000000E-01  1.245000E+02  3.767524E+01  1.628414E+07  0.000000E+00  1.000000E+00  0.000000E+00  0.000000E+00  1.024000E+03  0.000000E+00  3.446619E-17  3.191852E-01    1 
 5.000000E-01  5.000000E-01  1.255000E+02  3.763489E+01  1.627410E+07  0.000000E+00  1.000000E+00  0.000000E+00  0.000000E+00  1.024000E+03  0.000000E+00  3.447192E-17  3.194405E-01    1 
 5.000000E-01  5.000000E-01  1.265000E+02  3.759456E+01  1.626407E+07  0.000000E+00  1.000000E+00  0.000000E+00  0.000000E+00  1.024000E+03  0.000000E+00  3.447767E-17  3.196959E-01    1 
 5.000000E-01  5.000000E-01  1.275000E+02  3.755422E+01  1.625403E+07  0.000000E+00  1.000000E+00  0.000000E+00  0.000000E+00  1.024000E+03  0.000000E+00  3.448342E-17  3.199516E-01    1 
 5.000000E-01  5.000000E-01  1.285000E+02  3.751390E+01  1.624400E+07  0.000000E+00  1.000000E+00  0.000000E+00  0.000000E+00  1.024000E+03  0.000000E+00  3.448917E-17  3.202074E-01    1 
 5.000000E-01  5.000000E-01  1.295000E+02  3.747357E+01  1.623396E+07  0.000000E+00  1.000000E+00  0.000000E+00  0.000000E+00  1.024000E+03  0.000000E+00  3.449493E-17  3.204635E-01    1 
 5.000000E-01  5.000000E-01  1.305000E+02  3.743326E+01  1.622393E+07  1.622400E+07  9.998823E-01  1.177305E-04  0.000000E+00  1.024000E+03  1.558502E+02  3.450069E-17  3.207197E-01    1 
 5.000000E-01  5.000000E-01  1.315000E+02  3.739294E+01  1.621389E+07  1.621403E+07  9.997669E-01  2.330838E-04  0.000000E+00  1.024000E+03  1.557855E+02  3.450646E-17  3.209762E-01    1 
 5.000000E-01  5.000000E-01  1.325000E+02  3.735264E+01  1.620386E+07  1.620406E+07  9.996571E-01  3.429316E-04  0.000000E+00  1.024000E+03  1.557208E+02  3.451224E-17  3.212329E-01    1 
 5.000000E-01  5.000000E-01  1.335000E+02  3.731234E+01  1.619382E+07  1.619409E+07  9.995529E-01  4.471305E-04  0.000000E+00  1.024000E+03  1.556560E+02  3.451802E-17  3.214898E-01    1 
 5.000000E-01  5.000000E-01  1.345000E+02  3.727204E+01  1.618378E+07  1.618411E+07  9.994602E-01  5.398206E-04  0.000000E+00  1.024000E+03  1.555911E+02  3.452381E-17  3.217469E-01    1 
 5.000000E-01  5.000000E-01  1.355000E+02  3.723175E+01  1.617375E+07  1.617412E+07  9.993831E-01  6.168709E-04  0.000000E+00  1.024000E+03  1.555261E+02  3.452960E-17  3.220042E-01    1 
 5.000000E-01  5.000000E-01  1.365000E+02  3.719146E+01  1.616371E+07  1.616412E+07  9.993193E-01  6.806801E-04  0.000000E+00  1.024000E+03  1.554610E+02  3.453540E-17  3.222617E-01    1 
 5.000000E-01  5.000000E-01  1.375000E+02  3.715118E+01  1.615368E+07  1.615412E+07  9.992625E-01  7.374907E-04  0.000000E+00  1.024000E+03  1.553958E+02  3.454121E-17  3.225194E-01    1 
 5.000000E-01  5.000000E-01  1.385000E+02  3.711090E+01  1.614364E+07  1.614412E+07  9.992081E-01  7.918908E-04  0.000000E+00  1.024000E+03  1.553306E+02  3.454701E-17  3.227773E-01    1 
 5.000000E-01  5.000000E-01  1.395000E+02  3.707063E+01  1.613360E+07  1.613411E+07  9.991544E-01  8.456211E-04  0.000000E+00  1.024000E+03  1.552654E+02  3.455283E-17  3.230354E-01    1 
 5.000000E-01  5.000000E-01  1.405000E+02  3.703037E+01  1.612357E+07  1.612411E+07  9.991008E-01  8.992348E-04  0.000000E+00  1.024000E+03  1.552002E+02  3.455865E-17  3.232937E-01    1 
 5.000000E-01  5.000000E-01  1.415000E+02  3.699011E+01  1.611353E+07  1.611411E+07  9.990471E-01  9.529003E-04  0.000000E+00  1.024000E+03  1.551349E+02  3.456448E-17  3.235523E-01    1 
 5.000000E-01  5.000000E-01  1.425000E+02  3.694985E+01  1.610350E+07  1.610410E+07  9.989933E-01  1.006685E-03  0.000000E+00  1.024000E+03  1.550696E+02  3.457031E-17  3.238110E-01    1 
 5.000000E-01  5.000000E-01  1.435000E+02  3.690960E+01  1.609346E+07  1.609410E+07  9.989394E-01  1.060629E-03  0.000000E+00  1.024000E+03  1.550042E+02  3.457615E-17  3.240699E-01    1 
 5.000000E-01  5.000000E-01  1.445000E+02  3.686936E+01  1.608342E+07  1.608409E+07  9.988853E-01  1.114739E-03  0.000000E+00  1.024000E+03  1.549389E+02  3.458199E-17  3.243291E-01    1 
 5.000000E-01  5.000000E-01  1.455000E+02  3.682912E+01  1.607339E+07  1.607409E+07  9.988310E-01  1.168966E-03  0.000000E+00  1.024000E+03  1.548735E+02  3.458784E-17  3.245885E-01    1 
 5.000000E-01  5.000000E-01  1.465000E+02  3.678888E+01  1.606335E+07  1.606408E+07  9.987768E-01  1.223199E-03  0.000000E+00  1.024000E+03  1.548080E+02  3.459370E-17  3.248480E-01    1 
 5.000000E-01  5.000000E-01  1.475000E+02  3.674865E+01  1.605331E+07  1.605408E+07  9.987227E-01  1.277270E-03  0.000000E+00  1.024000E+03  1.547426E+02  3.459956E-17  3.251078E-01    1 
 5.000000E-01  5.000000E-01  1.485000E+02  3.670843E+01  1.604328E+07  1.604407E+07  9.986690E-01  1.330976E-03  0.000000E+00  1.024000E+03  1.546771E+02  3.460542E-17  3.253678E-01    1 
 5.000000E-01  5.000000E-01  1.495000E+02  3.666821E+01  1.603324E+07  1.603407E+07  9.986159E-01  1.384124E-03  0.000000E+00  1.024000E+03  1.546116E+02  3.461129E-17  3.256280E-01    1 
 5.000000E-01  5.000000E-01  1.505000E+02  3.662800E+01  1.602321E+07  1.602406E+07  9.985634E-01  1.436552E-03  0.000000E+00  1.024000E+03  1.545460E+02  3.461717E-17  3.258884E-01    1 
 5.000000E-01  5.000000E-01  1.515000E+02  3.658779E+01  1.601317E+07  1.601406E+07  9.985118E-01  1.488165E-03  0.000000E+00  1.024000E+03  1.544804E+02  3.462306E-17  3.261490E-01    1 
 5.000000E-01  5.000000E-01  1.525000E+02  3.654759E+01  1.600313E+07  1.600405E+07  9.984611E-01  1.538929E-03  0.000000E+00  1.024000E+03  1.544148E+02  3.462894E-17  3.264098E-01    1 
 5.000000E-01  5.000000E-01  1.535000E+02  3.650739E+01  1.599310E+07  1.599404E+07  9.984111E-01  1.588871E-03  0.000000E+00  1.024000E+03  1.543492E+02  3.463484E-17  3.266708E-01    1 
 5.000000E-01  5.000000E-01  1.545000E+02  3.646720E+01  1.598306E+07  1.598404E+07  9.983619E-01  1.638061E-03  0.000000E+00  1.024000E+03  1.542835E+02  3.464074E-17  3.269320E-01    1 
 5.000000E-01  5.000000E-01  1.555000E+02  3.642701E+01  1.597302E+07  1.597403E+07  9.983134E-01  1.686590E-03  0.000000E+00  1.024000E+03  1.542178E+02  3.464665E-17  3.271935E-01    1 
 5.000000E-01  5.000000E-01  1.565000E+02  3.638683E+01  1.596299E+07  1.596402E+07  9.982654E-01  1.734554E-03  0.000000E+00  1.024000E+03  1.541520E+02  3.465256E-17  3.274551E-01    1 