TITLE = "  1.11800E+05 [y]"
VARIABLES="X [m]","Y [m]","Z [m]","Temperature [C]","Liquid Pressure [Pa]","Gas Pressure [Pa]","Liquid Saturation","Gas Saturation","Hydrate Saturation","Liquid Density [kg/m^3]","Gas Density [kg/m^3]","Permeability X [m^2]","Porosity","Material ID"
ZONE T="1.11800E+05", STRANDID=1, SOLUTIONTIME=1.11800E+05, I=1, J=1, K=1000, DATAPACKING=POINT
 5.000000E-01  5.000000E-01  5.000000E-01  4.125160E+01  1.761182E+07  1.761745E+07  9.892190E-01  1.078101E-02  0.000000E+00  1.024000E+03  1.654560E+02  3.379583E-17  2.890648E-01    1 
 5.000000E-01  5.000000E-01  1.500000E+00  4.121054E+01  1.760178E+07  1.760745E+07  9.891545E-01  1.084551E-02  0.000000E+00  1.024000E+03  1.653946E+02  3.380093E-17  2.892959E-01    1 
 5.000000E-01  5.000000E-01  2.500000E+00  4.116947E+01  1.759175E+07  1.759744E+07  9.890956E-01  1.090435E-02  0.000000E+00  1.024000E+03  1.653332E+02  3.380603E-17  2.895273E-01    1 
 5.000000E-01  5.000000E-01  3.500000E+00  4.112842E+01  1.758171E+07  1.758743E+07  9.890371E-01  1.096285E-02  0.000000E+00  1.024000E+03  1.652718E+02  3.381113E-17  2.897588E-01    1 
 5.000000E-01  5.000000E-01  4.500000E+00  4.108736E+01  1.757168E+07  1.757742E+07  9.889790E-01  1.102104E-02  0.000000E+00  1.024000E+03  1.652103E+02  3.381624E-17  2.899905E-01    1 
 5.000000E-01  5.000000E-01  5.500000E+00  4.104631E+01  1.756164E+07  1.756741E+07  9.889211E-01  1.107894E-02  0.000000E+00  1.024000E+03  1.651488E+02  3.382135E-17  2.902224E-01    1 
 5.000000E-01  5.000000E-01  6.500000E+00  4.100527E+01  1.755161E+07  1.755740E+07  9.888634E-01  1.113659E-02  0.000000E+00  1.024000E+03  1.650873E+02  3.382647E-17  2.904545E-01    1 
 5.000000E-01  5.000000E-01  7.500000E+00  4.096423E+01  1.754157E+07  1.754739E+07  9.888060E-01  1.119400E-02  0.000000E+00  1.024000E+03  1.650258E+02  3.383160E-17  2.906868E-01    1 
 5.000000E-01  5.000000E-01  8.500000E+00  4.092319E+01  1.753154E+07  1.753738E+07  9.887488E-01  1.125122E-02  0.000000E+00  1.024000E+03  1.649642E+02  3.383673E-17  2.909192E-01    1 
 5.000000E-01  5.000000E-01  9.500000E+00  4.088216E+01  1.752150E+07  1.752736E+07  9.886917E-01  1.130827E-02  0.000000E+00  1.024000E+03  1.649026E+02  3.384186E-17  2.911519E-01    1 
 5.000000E-01  5.000000E-01  1.050000E+01  4.084113E+01  1.751147E+07  1.751735E+07  9.886348E-01  1.136518E-02  0.000000E+00  1.024000E+03  1.648410E+02  3.384700E-17  2.913847E-01    1 
 5.000000E-01  5.000000E-01  1.150000E+01  4.080010E+01  1.750143E+07  1.750734E+07  9.885780E-01  1.142196E-02  0.000000E+00  1.024000E+03  1.647793E+02  3.385214E-17  2.916177E-01    1 
 5.000000E-01  5.000000E-01  1.250000E+01  4.075908E+01  1.749140E+07  1.749733E+07  9.885213E-01  1.147867E-02  0.000000E+00  1.024000E+03  1.647176E+02  3.385729E-17  2.918509E-01    1 
 5.000000E-01  5.000000E-01  1.350000E+01  4.071807E+01  1.748136E+07  1.748732E+07  9.884647E-01  1.153531E-02  0.000000E+00  1.024000E+03  1.646559E+02  3.386244E-17  2.920843E-01    1 
 5.000000E-01  5.000000E-01  1.450000E+01  4.067706E+01  1.747133E+07  1.747731E+07  9.884081E-01  1.159192E-02  0.000000E+00  1.024000E+03  1.645942E+02  3.386760E-17  2.923179E-01    1 
 5.000000E-01  5.000000E-01  1.550000E+01  4.063605E+01  1.746129E+07  1.746730E+07  9.883515E-01  1.164852E-02  0.000000E+00  1.024000E+03  1.645324E+02  3.387276E-17  2.925516E-01    1 
 5.000000E-01  5.000000E-01  1.650000E+01  4.059504E+01  1.745126E+07  1.745729E+07  9.882949E-01  1.170514E-02  0.000000E+00  1.024000E+03  1.644706E+02  3.387793E-17  2.927856E-01    1 
 5.000000E-01  5.000000E-01  1.750000E+01  4.055404E+01  1.744122E+07  1.744728E+07  9.882382E-01  1.176180E-02  0.000000E+00  1.024000E+03  1.644088E+02  3.388310E-17  2.930197E-01    1 
 5.000000E-01  5.000000E-01  1.850000E+01  4.051305E+01  1.743119E+07  1.743726E+07  9.881815E-01  1.181854E-02  0.000000E+00  1.024000E+03  1.643470E+02  3.388828E-17  2.932541E-01    1 
 5.000000E-01  5.000000E-01  1.950000E+01  4.047206E+01  1.742115E+07  1.742725E+07  9.881246E-01  1.187537E-02  0.000000E+00  1.024000E+03  1.642851E+02  3.389346E-17  2.934886E-01    1 
 5.000000E-01  5.000000E-01  2.050000E+01  4.043107E+01  1.741112E+07  1.741724E+07  9.880677E-01  1.193232E-02  0.000000E+00  1.024000E+03  1.642232E+02  3.389865E-17  2.937233E-01    1 
 5.000000E-01  5.000000E-01  2.150000E+01  4.039009E+01  1.740108E+07  1.740723E+07  9.880106E-01  1.198942E-02  0.000000E+00  1.024000E+03  1.641613E+02  3.390384E-17  2.939581E-01    1 
 5.000000E-01  5.000000E-01  2.250000E+01  4.034911E+01  1.739105E+07  1.739722E+07  9.879533E-01  1.204668E-02  0.000000E+00  1.024000E+03  1.640993E+02  3.390904E-17  2.941932E-01    1 
 5.000000E-01  5.000000E-01  2.350000E+01  4.030813E+01  1.738101E+07  1.738721E+07  9.878959E-01  1.210413E-02  0.000000E+00  1.024000E+03  1.640374E+02  3.391424E-17  2.944285E-01    1 
 5.000000E-01  5.000000E-01  2.450000E+01  4.026716E+01  1.737097E+07  1.737720E+07  9.878382E-01  1.216178E-02  0.000000E+00  1.024000E+03  1.639754E+02  3.391945E-17  2.946639E-01    1 
 5.000000E-01  5.000000E-01  2.550000E+01  4.022620E+01  1.736094E+07  1.736718E+07  9.877803E-01  1.221967E-02  0.000000E+00  1.024000E+03  1.639133E+02  3.392466E-17  2.948996E-01    1 
 5.000000E-01  5.000000E-01  2.650000E+01  4.018523E+01  1.735090E+07  1.735717E+07  9.877222E-01  1.227781E-02  0.000000E+00  1.024000E+03  1.638513E+02  3.392988E-17  2.951354E-01    1 
 5.000000E-01  5.000000E-01  2.750000E+01  4.014428E+01  1.734087E+07  1.734716E+07  9.876638E-01  1.233622E-02  0.000000E+00  1.024000E+03  1.637892E+02  3.393510E-17  2.953714E-01    1 
 5.000000E-01  5.000000E-01  2.850000E+01  4.010332E+01  1.733083E+07  1.733715E+07  9.876051E-01  1.239492E-02  0.000000E+00  1.024000E+03  1.637271E+02  3.394033E-17  2.956076E-01    1 
 5.000000E-01  5.000000E-01  2.950000E+01  4.006237E+01  1.732080E+07  1.732714E+07  9.875461E-01  1.245392E-02  0.000000E+00  1.024000E+03  1.636650E+02  3.394556E-17  2.958440E-01    1 
 5.000000E-01  5.000000E-01  3.050000E+01  4.002143E+01  1.731076E+07  1.731713E+07  9.874868E-01  1.251324E-02  0.000000E+00  1.024000E+03  1.636028E+02  3.395080E-17  2.960806E-01    1 
 5.000000E-01  5.000000E-01  3.150000E+01  3.998049E+01  1.730073E+07  1.730712E+07  9.874271E-01  1.257290E-02  0.000000E+00  1.024000E+03  1.635407E+02  3.395604E-17  2.963173E-01    1 
 5.000000E-01  5.000000E-01  3.250000E+01  3.993955E+01  1.729069E+07  1.729711E+07  9.873671E-01  1.263291E-02  0.000000E+00  1.024000E+03  1.634784E+02  3.396129E-17  2.965543E-01    1 
 5.000000E-01  5.000000E-01  3.350000E+01  3.989862E+01  1.728066E+07  1.728710E+07  9.873067E-01  1.269327E-02  0.000000E+00  1.024000E+03  1.634162E+02  3.396654E-17  2.967915E-01    1 
 5.000000E-01  5.000000E-01  3.450000E+01  3.985769E+01  1.727062E+07  1.727709E+07  9.872460E-01  1.275400E-02  0.000000E+00  1.024000E+03  1.633540E+02  3.397180E-17  2.970288E-01    1 
 5.000000E-01  5.000000E-01  3.550000E+01  3.981676E+01  1.726059E+07  1.726707E+07  9.871849E-01  1.281511E-02  0.000000E+00  1.024000E+03  1.632917E+02  3.397706E-17  2.972663E-01    1 
 5.000000E-01  5.000000E-01  3.650000E+01  3.977584E+01  1.725055E+07  1.725706E+07  9.871234E-01  1.287660E-02  0.000000E+00  1.024000E+03  1.632294E+02  3.398233E-17  2.975040E-01    1 
 5.000000E-01  5.000000E-01  3.750000E+01  3.973493E+01  1.724052E+07  1.724705E+07  9.870615E-01  1.293848E-02  0.000000E+00  1.024000E+03  1.631670E+02  3.398760E-17  2.977419E-01    1 
 5.000000E-01  5.000000E-01  3.850000E+01  3.969401E+01  1.723048E+07  1.723704E+07  9.869993E-01  1.300074E-02  0.000000E+00  1.024000E+03  1.631047E+02  3.399288E-17  2.979800E-01    1 
 5.000000E-01  5.000000E-01  3.950000E+01  3.965311E+01  1.722045E+07  1.722703E+07  9.869366E-01  1.306339E-02  0.000000E+00  1.024000E+03  1.630423E+02  3.399816E-17  2.982183E-01    1 
 5.000000E-01  5.000000E-01  4.050000E+01  3.961220E+01  1.721041E+07  1.721702E+07  9.868736E-01  1.312643E-02  0.000000E+00  1.024000E+03  1.629799E+02  3.400345E-17  2.984568E-01    1 
 5.000000E-01  5.000000E-01  4.150000E+01  3.957130E+01  1.720038E+07  1.720701E+07  9.868102E-01  1.318985E-02  0.000000E+00  1.024000E+03  1.629174E+02  3.400874E-17  2.986955E-01    1 
 5.000000E-01  5.000000E-01  4.250000E+01  3.953041E+01  1.719034E+07  1.719700E+07  9.867464E-01  1.325363E-02  0.000000E+00  1.024000E+03  1.628550E+02  3.401404E-17  2.989343E-01    1 
 5.000000E-01  5.000000E-01  4.350000E+01  3.948952E+01  1.718031E+07  1.718699E+07  9.866822E-01  1.331778E-02  0.000000E+00  1.024000E+03  1.627925E+02  3.401934E-17  2.991734E-01    1 
 5.000000E-01  5.000000E-01  4.450000E+01  3.944863E+01  1.717027E+07  1.717698E+07  9.866177E-01  1.338228E-02  0.000000E+00  1.024000E+03  1.627300E+02  3.402465E-17  2.994126E-01    1 
 5.000000E-01  5.000000E-01  4.550000E+01  3.940775E+01  1.716023E+07  1.716697E+07  9.865529E-01  1.344712E-02  0.000000E+00  1.024000E+03  1.626674E+02  3.402996E-17  2.996521E-01    1 
 5.000000E-01  5.000000E-01  4.650000E+01  3.936687E+01  1.715020E+07  1.715696E+07  9.864877E-01  1.351227E-02  0.000000E+00  1.024000E+03  1.626048E+02  3.403528E-17  2.998917E-01    1 
 5.000000E-01  5.000000E-01  4.750000E+01  3.932599E+01  1.714016E+07  1.714695E+07  9.864223E-01  1.357772E-02  0.000000E+00  1.024000E+03  1.625422E+02  3.404060E-17  3.001315E-01    1 
 5.000000E-01  5.000000E-01  4.850000E+01  3.928512E+01  1.713013E+07  1.713695E+07  9.863566E-01  1.364345E-02  0.000000E+00  1.024000E+03  1.624796E+02  3.404593E-17  3.003715E-01    1 
 5.000000E-01  5.000000E-01  4.950000E+01  3.924426E+01  1.712009E+07  1.712694E+07  9.862906E-01  1.370943E-02  0.000000E+00  1.024000E+03  1.624170E+02  3.405126E-17  3.006117E-01    1 
 5.000000E-01  5.000000E-01  5.050000E+01  3.920340E+01  1.711006E+07  1.711693E+07  9.862244E-01  1.377565E-02  0.000000E+00  1.024000E+03  1.623543E+02  3.405660E-17  3.008521E-01    1 
 5.000000E-01  5.000000E-01  5.150000E+01  3.916254E+01  1.710002E+07  1.710692E+07  9.861579E-01  1.384207E-02  0.000000E+00  1.024000E+03  1.622916E+02  3.406195E-17  3.010927E-01    1 
 5.000000E-01  5.000000E-01  5.250000E+01  3.912169E+01  1.708999E+07  1.709691E+07  9.860913E-01  1.390866E-02  0.000000E+00  1.024000E+03  1.622289E+02  3.406729E-17  3.013335E-01    1 
 5.000000E-01  5.000000E-01  5.350000E+01  3.908084E+01  1.707995E+07  1.708690E+07  9.860246E-01  1.397541E-02  0.000000E+00  1.024000E+03  1.621661E+02  3.407265E-17  3.015744E-01    1 
 5.000000E-01  5.000000E-01  5.450000E+01  3.903999E+01  1.706992E+07  1.707689E+07  9.859577E-01  1.404227E-02  0.000000E+00  1.024000E+03  1.621033E+02  3.407801E-17  3.018156E-01    1 
 5.000000E-01  5.000000E-01  5.550000E+01  3.899915E+01  1.705988E+07  1.706688E+07  9.858908E-01  1.410922E-02  0.000000E+00  1.024000E+03  1.620405E+02  3.408337E-17  3.020570E-01    1 
 5.000000E-01  5.000000E-01  5.650000E+01  3.895831E+01  1.704985E+07  1.705687E+07  9.858238E-01  1.417624E-02  0.000000E+00  1.024000E+03  1.619777E+02  3.408874E-17  3.022985E-01    1 
 5.000000E-01  5.000000E-01  5.750000E+01  3.891748E+01  1.703981E+07  1.704686E+07  9.857567E-01  1.424328E-02  0.000000E+00  1.024000E+03  1.619148E+02  3.409411E-17  3.025403E-01    1 
 5.000000E-01  5.000000E-01  5.850000E+01  3.887665E+01  1.702978E+07  1.703685E+07  9.856897E-01  1.431032E-02  0.000000E+00  1.024000E+03  1.618519E+02  3.409949E-17  3.027822E-01    1 
 5.000000E-01  5.000000E-01  5.950000E+01  3.883583E+01  1.701974E+07  1.702684E+07  9.856227E-01  1.437732E-02  0.000000E+00  1.024000E+03  1.617890E+02  3.410488E-17  3.030243E-01    1 
 5.000000E-01  5.000000E-01  6.050000E+01  3.879501E+01  1.700971E+07  1.701683E+07  9.855557E-01  1.444428E-02  0.000000E+00  1.024000E+03  1.617261E+02  3.411027E-17  3.032666E-01    1 
 5.000000E-01  5.000000E-01  6.150000E+01  3.875420E+01  1.699967E+07  1.700682E+07  9.854889E-01  1.451114E-02  0.000000E+00  1.024000E+03  1.616631E+02  3.411566E-17  3.035092E-01    1 
 5.000000E-01  5.000000E-01  6.250000E+01  3.871338E+01  1.698964E+07  1.699681E+07  9.854221E-01  1.457790E-02  0.000000E+00  1.024000E+03  1.616001E+02  3.412106E-17  3.037519E-01    1 
 5.000000E-01  5.000000E-01  6.350000E+01  3.867258E+01  1.697960E+07  1.698680E+07  9.853555E-01  1.464452E-02  0.000000E+00  1.024000E+03  1.615371E+02  3.412647E-17  3.039948E-01    1 
 5.000000E-01  5.000000E-01  6.450000E+01  3.863178E+01  1.696956E+07  1.697679E+07  9.852890E-01  1.471099E-02  0.000000E+00  1.024000E+03  1.614740E+02  3.413188E-17  3.042379E-01    1 
 5.000000E-01  5.000000E-01  6.550000E+01  3.859098E+01  1.695953E+07  1.696678E+07  9.852227E-01  1.477727E-02  0.000000E+00  1.024000E+03  1.614109E+02  3.413729E-17  3.044812E-01    1 
 5.000000E-01  5.000000E-01  6.650000E+01  3.855018E+01  1.694949E+07  1.695677E+07  9.851566E-01  1.484336E-02  0.000000E+00  1.024000E+03  1.613478E+02  3.414271E-17  3.047247E-01    1 
 5.000000E-01  5.000000E-01  6.750000E+01  3.850939E+01  1.693946E+07  1.694676E+07  9.850908E-01  1.490924E-02  0.000000E+00  1.024000E+03  1.612847E+02  3.414814E-17  3.049683E-01    1 
 5.000000E-01  5.000000E-01  6.850000E+01  3.846861E+01  1.692942E+07  1.693675E+07  9.850251E-01  1.497489E-02  0.000000E+00  1.024000E+03  1.612215E+02  3.415357E-17  3.052122E-01    1 
 5.000000E-01  5.000000E-01  6.950000E+01  3.842783E+01  1.691939E+07  1.692673E+07  9.849597E-01  1.504031E-02  0.000000E+00  1.024000E+03  1.611583E+02  3.415901E-17  3.054563E-01    1 
 5.000000E-01  5.000000E-01  7.050000E+01  3.838705E+01  1.690935E+07  1.691672E+07  9.848945E-01  1.510547E-02  0.000000E+00  1.024000E+03  1.610951E+02  3.416445E-17  3.057006E-01    1 
 5.000000E-01  5.000000E-01  7.150000E+01  3.834628E+01  1.689932E+07  1.690671E+07  9.848296E-01  1.517039E-02  0.000000E+00  1.024000E+03  1.610318E+02  3.416989E-17  3.059450E-01    1 
 5.000000E-01  5.000000E-01  7.250000E+01  3.830551E+01  1.688928E+07  1.689670E+07  9.847650E-01  1.523504E-02  0.000000E+00  1.024000E+03  1.609685E+02  3.417535E-17  3.061897E-01    1 
 5.000000E-01  5.000000E-01  7.350000E+01  3.826474E+01  1.687925E+07  1.688669E+07  9.847006E-01  1.529941E-02  0.000000E+00  1.024000E+03  1.609052E+02  3.418080E-17  3.064345E-01    1 
 5.000000E-01  5.000000E-01  7.450000E+01  3.822398E+01  1.686921E+07  1.687668E+07  9.846365E-01  1.536354E-02  0.000000E+00  1.024000E+03  1.608419E+02  3.418627E-17  3.066796E-01    1 
 5.000000E-01  5.000000E-01  7.550000E+01  3.818323E+01  1.685918E+07  1.686666E+07  9.845726E-01  1.542739E-02  0.000000E+00  1.024000E+03  1.607785E+02  3.419173E-17  3.069248E-01    1 
 5.000000E-01  5.000000E-01  7.650000E+01  3.814248E+01  1.684914E+07  1.685665E+07  9.845090E-01  1.549098E-02  0.000000E+00  1.024000E+03  1.607151E+02  3.419721E-17  3.071703E-01    1 
 5.000000E-01  5.000000E-01  7.750000E+01  3.810173E+01  1.683911E+07  1.684664E+07  9.844457E-01  1.555431E-02  0.000000E+00  1.024000E+03  1.606517E+02  3.420268E-17  3.074159E-01    1 
 5.000000E-01  5.000000E-01  7.850000E+01  3.806099E+01  1.682907E+07  1.683663E+07  9.843826E-01  1.561738E-02  0.000000E+00  1.024000E+03  1.605882E+02  3.420817E-17  3.076617E-01    1 
 5.000000E-01  5.000000E-01  7.950000E+01  3.802025E+01  1.681904E+07  1.682661E+07  9.843198E-01  1.568022E-02  0.000000E+00  1.024000E+03  1.605247E+02  3.421366E-17  3.079078E-01    1 
 5.000000E-01  5.000000E-01  8.050000E+01  3.797951E+01  1.680900E+07  1.681660E+07  9.842572E-01  1.574281E-02  0.000000E+00  1.024000E+03  1.604612E+02  3.421915E-17  3.081540E-01    1 
 5.000000E-01  5.000000E-01  8.150000E+01  3.793878E+01  1.679897E+07  1.680659E+07  9.841948E-01  1.580517E-02  0.000000E+00  1.024000E+03  1.603977E+02  3.422465E-17  3.084004E-01    1 
 5.000000E-01  5.000000E-01  8.250000E+01  3.789806E+01  1.678893E+07  1.679657E+07  9.841327E-01  1.586730E-02  0.000000E+00  1.024000E+03  1.603341E+02  3.423015E-17  3.086470E-01    1 
 5.000000E-01  5.000000E-01  8.350000E+01  3.785734E+01  1.677890E+07  1.678656E+07  9.840708E-01  1.592922E-02  0.000000E+00  1.024000E+03  1.602705E+02  3.423566E-17  3.088939E-01    1 
 5.000000E-01  5.000000E-01  8.450000E+01  3.781662E+01  1.676886E+07  1.677655E+07  9.840091E-01  1.599093E-02  0.000000E+00  1.024000E+03  1.602069E+02  3.424118E-17  3.091409E-01    1 
 5.000000E-01  5.000000E-01  8.550000E+01  3.777591E+01  1.675882E+07  1.676653E+07  9.839475E-01  1.605246E-02  0.000000E+00  1.024000E+03  1.601432E+02  3.424670E-17  3.093881E-01    1 
 5.000000E-01  5.000000E-01  8.650000E+01  3.773520E+01  1.674879E+07  1.675652E+07  9.838862E-01  1.611381E-02  0.000000E+00  1.024000E+03  1.600795E+02  3.425222E-17  3.096355E-01    1 
 5.000000E-01  5.000000E-01  8.750000E+01  3.769449E+01  1.673875E+07  1.674651E+07  9.838250E-01  1.617498E-02  0.000000E+00  1.024000E+03  1.600158E+02  3.425775E-17  3.098831E-01    1 
 5.000000E-01  5.000000E-01  8.850000E+01  3.765379E+01  1.672872E+07  1.673649E+07  9.837640E-01  1.623600E-02  0.000000E+00  1.024000E+03  1.599521E+02  3.426329E-17  3.101309E-01    1 
 5.000000E-01  5.000000E-01  8.950000E+01  3.761310E+01  1.671868E+07  1.672648E+07  9.837031E-01  1.629687E-02  0.000000E+00  1.024000E+03  1.598883E+02  3.426883E-17  3.103789E-01    1 
 5.000000E-01  5.000000E-01  9.050000E+01  3.757241E+01  1.670865E+07  1.671646E+07  9.836424E-01  1.635761E-02  0.000000E+00  1.024000E+03  1.598245E+02  3.427438E-17  3.106271E-01    1 
 5.000000E-01  5.000000E-01  9.150000E+01  3.753172E+01  1.669861E+07  1.670645E+07  9.835818E-01  1.641822E-02  0.000000E+00  1.024000E+03  1.597607E+02  3.427993E-17  3.108755E-01    1 
 5.000000E-01  5.000000E-01  9.250000E+01  3.749104E+01  1.668858E+07  1.669644E+07  9.835213E-01  1.647872E-02  0.000000E+00  1.024000E+03  1.596969E+02  3.428549E-17  3.111241E-01    1 
 5.000000E-01  5.000000E-01  9.350000E+01  3.745036E+01  1.667854E+07  1.668642E+07  9.834609E-01  1.653912E-02  0.000000E+00  1.024000E+03  1.596330E+02  3.429105E-17  3.113729E-01    1 
 5.000000E-01  5.000000E-01  9.450000E+01  3.740969E+01  1.666851E+07  1.667641E+07  9.834006E-01  1.659943E-02  0.000000E+00  1.024000E+03  1.595691E+02  3.429662E-17  3.116219E-01    1 
 5.000000E-01  5.000000E-01  9.550000E+01  3.736902E+01  1.665847E+07  1.666639E+07  9.833403E-01  1.665965E-02  0.000000E+00  1.024000E+03  1.595051E+02  3.430219E-17  3.118711E-01    1 
 5.000000E-01  5.000000E-01  9.650000E+01  3.732836E+01  1.664844E+07  1.665638E+07  9.832802E-01  1.671981E-02  0.000000E+00  1.024000E+03  1.594412E+02  3.430777E-17  3.121205E-01    1 
 5.000000E-01  5.000000E-01  9.750000E+01  3.728770E+01  1.663840E+07  1.664636E+07  9.832201E-01  1.677990E-02  0.000000E+00  1.024000E+03  1.593772E+02  3.431336E-17  3.123701E-01    1 
 5.000000E-01  5.000000E-01  9.850000E+01  3.724704E+01  1.662837E+07  1.663635E+07  9.831601E-01  1.683994E-02  0.000000E+00  1.024000E+03  1.593132E+02  3.431895E-17  3.126199E-01    1 
 5.000000E-01  5.000000E-01  9.950000E+01  3.720639E+01  1.661833E+07  1.662633E+07  9.831001E-01  1.689993E-02  0.000000E+00  1.024000E+03  1.592491E+02  3.432454E-17  3.128699E-01    1 
 5.000000E-01  5.000000E-01  1.005000E+02  3.716574E+01  1.660830E+07  1.661632E+07  9.830401E-01  1.695989E-02  0.000000E+00  1.024000E+03  1.591850E+02  3.433014E-17  3.131201E-01    1 
 5.000000E-01  5.000000E-01  1.015000E+02  3.712510E+01  1.659826E+07  1.660630E+07  9.829802E-01  1.701982E-02  0.000000E+00  1.024000E+03  1.591209E+02  3.433575E-17  3.133705E-01    1 
 5.000000E-01  5.000000E-01  1.025000E+02  3.708446E+01  1.658823E+07  1.659629E+07  9.829203E-01  1.707973E-02  0.000000E+00  1.024000E+03  1.590568E+02  3.434136E-17  3.136211E-01    1 
 5.000000E-01  5.000000E-01  1.035000E+02  3.704383E+01  1.657819E+07  1.658627E+07  9.828604E-01  1.713963E-02  0.000000E+00  1.024000E+03  1.589926E+02  3.434698E-17  3.138719E-01    1 
 5.000000E-01  5.000000E-01  1.045000E+02  3.700320E+01  1.656816E+07  1.657626E+07  9.828005E-01  1.719952E-02  0.000000E+00  1.024000E+03  1.589284E+02  3.435260E-17  3.141229E-01    1 
 5.000000E-01  5.000000E-01  1.055000E+02  3.696257E+01  1.655812E+07  1.656624E+07  9.827406E-01  1.725942E-02  0.000000E+00  1.024000E+03  1.588642E+02  3.435823E-17  3.143741E-01    1 
 5.000000E-01  5.000000E-01  1.065000E+02  3.692195E+01  1.654809E+07  1.655623E+07  9.826807E-01  1.731932E-02  0.000000E+00  1.024000E+03  1.588000E+02  3.436386E-17  3.146255E-01    1 
 5.000000E-01  5.000000E-01  1.075000E+02  3.688133E+01  1.653805E+07  1.654621E+07  9.826208E-01  1.737923E-02  0.000000E+00  1.024000E+03  1.587357E+02  3.436950E-17  3.148771E-01    1 
 5.000000E-01  5.000000E-01  1.085000E+02  3.684072E+01  1.652802E+07  1.653620E+07  9.825608E-01  1.743916E-02  0.000000E+00  1.024000E+03  1.586714E+02  3.437514E-17  3.151289E-01    1 
 5.000000E-01  5.000000E-01  1.095000E+02  3.680012E+01  1.651798E+07  1.652618E+07  9.825009E-01  1.749911E-02  0.000000E+00  1.024000E+03  1.586071E+02  3.438079E-17  3.153809E-01    1 
 5.000000E-01  5.000000E-01  1.105000E+02  3.675951E+01  1.650795E+07  1.651617E+07  9.824409E-01  1.755909E-02  0.000000E+00  1.024000E+03  1.585427E+02  3.438645E-17  3.156331E-01    1 
 5.000000E-01  5.000000E-01  1.115000E+02  3.671891E+01  1.649791E+07  1.650615E+07  9.823809E-01  1.761910E-02  0.000000E+00  1.024000E+03  1.584783E+02  3.439211E-17  3.158855E-01    1 
 5.000000E-01  5.000000E-01  1.125000E+02  3.667832E+01  1.648788E+07  1.649613E+07  9.823209E-01  1.767915E-02  0.000000E+00  1.024000E+03  1.584139E+02  3.439777E-17  3.161381E-01    1 
 5.000000E-01  5.000000E-01  1.135000E+02  3.663773E+01  1.647784E+07  1.648612E+07  9.822608E-01  1.773924E-02  0.000000E+00  1.024000E+03  1.583495E+02  3.440344E-17  3.163909E-01    1 
 5.000000E-01  5.000000E-01  1.145000E+02  3.659715E+01  1.646781E+07  1.647610E+07  9.822006E-01  1.779937E-02  0.000000E+00  1.024000E+03  1.582850E+02  3.440912E-17  3.166439E-01    1 
 5.000000E-01  5.000000E-01  1.155000E+02  3.655657E+01  1.645777E+07  1.646609E+07  9.821405E-01  1.785954E-02  0.000000E+00  1.024000E+03  1.582205E+02  3.441480E-17  3.168971E-01    1 
 5.000000E-01  5.000000E-01  1.165000E+02  3.651599E+01  1.644774E+07  1.645607E+07  9.820802E-01  1.791977E-02  0.000000E+00  1.024000E+03  1.581560E+02  3.442049E-17  3.171506E-01    1 
 5.000000E-01  5.000000E-01  1.175000E+02  3.647542E+01  1.643770E+07  1.644606E+07  9.820200E-01  1.798005E-02  0.000000E+00  1.024000E+03  1.580914E+02  3.442618E-17  3.174042E-01    1 
 5.000000E-01  5.000000E-01  1.185000E+02  3.643485E+01  1.642767E+07  1.643604E+07  9.819596E-01  1.804038E-02  0.000000E+00  1.024000E+03  1.580268E+02  3.443188E-17  3.176580E-01    1 
 5.000000E-01  5.000000E-01  1.195000E+02  3.639429E+01  1.641763E+07  1.642603E+07  9.818992E-01  1.810077E-02  0.000000E+00  1.024000E+03  1.579622E+02  3.443758E-17  3.179120E-01    1 
 5.000000E-01  5.000000E-01  1.205000E+02  3.635373E+01  1.640760E+07  1.641601E+07  9.818388E-01  1.816122E-02  0.000000E+00  1.024000E+03  1.578976E+02  3.444329E-17  3.181663E-01    1 
 5.000000E-01  5.000000E-01  1.215000E+02  3.631318E+01  1.639756E+07  1.640599E+07  9.817783E-01  1.822174E-02  0.000000E+00  1.024000E+03  1.578329E+02  3.444901E-17  3.184207E-01    1 
 5.000000E-01  5.000000E-01  1.225000E+02  3.627263E+01  1.638753E+07  1.639598E+07  9.817177E-01  1.828231E-02  0.000000E+00  1.024000E+03  1.577682E+02  3.445473E-17  3.186753E-01    1 
 5.000000E-01  5.000000E-01  1.235000E+02  3.623208E+01  1.637749E+07  1.638596E+07  9.816570E-01  1.834296E-02  0.000000E+00  1.024000E+03  1.577035E+02  3.446046E-17  3.189302E-01    1 
 5.000000E-01  5.000000E-01  1.245000E+02  3.619154E+01  1.636746E+07  1.637595E+07  9.815963E-01  1.840367E-02  0.000000E+00  1.024000E+03  1.576388E+02  3.446619E-17  3.191852E-01    1 
 5.000000E-01  5.000000E-01  1.255000E+02  3.615100E+01  1.635742E+07  1.636593E+07  9.815355E-01  1.846445E-02  0.000000E+00  1.024000E+03  1.575740E+02  3.447192E-17  3.194405E-01    1 
 5.000000E-01  5.000000E-01  1.265000E+02  3.611047E+01  1.634739E+07  1.635591E+07  9.814747E-01  1.852531E-02  0.000000E+00  1.024000E+03  1.575092E+02  3.447767E-17  3.196959E-01    1 
 5.000000E-01  5.000000E-01  1.275000E+02  3.606995E+01  1.633735E+07  1.634590E+07  9.814138E-01  1.858624E-02  0.000000E+00  1.024000E+03  1.574443E+02  3.448342E-17  3.199516E-01    1 
 5.000000E-01  5.000000E-01  1.285000E+02  3.602942E+01  1.632732E+07  1.633588E+07  9.813528E-01  1.864725E-02  0.000000E+00  1.024000E+03  1.573795E+02  3.448917E-17  3.202074E-01    1 
 5.000000E-01  5.000000E-01  1.295000E+02  3.598891E+01  1.631728E+07  1.632587E+07  9.812917E-01  1.870834E-02  0.000000E+00  1.024000E+03  1.573146E+02  3.449493E-17  3.204635E-01    1 
 5.000000E-01  5.000000E-01  1.305000E+02  3.594839E+01  1.630725E+07  1.631585E+07  9.812305E-01  1.876951E-02  0.000000E+00  1.024000E+03  1.572497E+02  3.450069E-17  3.207197E-01    1 
 5.000000E-01  5.000000E-01  1.315000E+02  3.590788E+01  1.629721E+07  1.630583E+07  9.811692E-01  1.883077E-02  0.000000E+00  1.024000E+03  1.571847E+02  3.450646E-17  3.209762E-01    1 
 5.000000E-01  5.000000E-01  1.325000E+02  3.586738E+01  1.628718E+07  1.629582E+07  9.811079E-01  1.889211E-02  0.000000E+00  1.024000E+03  1.571197E+02  3.451224E-17  3.212329E-01    1 
 5.000000E-01  5.000000E-01  1.335000E+02  3.582688E+01  1.627714E+07  1.628580E+07  9.810465E-01  1.895355E-02  0.000000E+00  1.024000E+03  1.570547E+02  3.451802E-17  3.214898E-01    1 
 5.000000E-01  5.000000E-01  1.345000E+02  3.578638E+01  1.626711E+07  1.627579E+07  9.809849E-01  1.901508E-02  0.000000E+00  1.024000E+03  1.569897E+02  3.452381E-17  3.217469E-01    1 
 5.000000E-01  5.000000E-01  1.355000E+02  3.574589E+01  1.625707E+07  1.626577E+07  9.809233E-01  1.907671E-02  0.000000E+00  1.024000E+03  1.569246E+02  3.452960E-17  3.220042E-01    1 
 5.000000E-01  5.000000E-01  1.365000E+02  3.570541E+01  1.624704E+07  1.625575E+07  9.808616E-01  1.913844E-02  0.000000E+00  1.024000E+03  1.568595E+02  3.453540E-17  3.222617E-01    1 
 5.000000E-01  5.000000E-01  1.375000E+02  3.566493E+01  1.623700E+07  1.624574E+07  9.807997E-01  1.920028E-02  0.000000E+00  1.024000E+03  1.567944E+02  3.454121E-17  3.225194E-01    1 
 5.000000E-01  5.000000E-01  1.385000E+02  3.562445E+01  1.622697E+07  1.623572E+07  9.807378E-01  1.926223E-02  0.000000E+00  1.024000E+03  1.567293E+02  3.454701E-17  3.227773E-01    1 
 5.000000E-01  5.000000E-01  1.395000E+02  3.558398E+01  1.621693E+07  1.622570E+07  9.806757E-01  1.932431E-02  0.000000E+00  1.024000E+03  1.566641E+02  3.455283E-17  3.230354E-01    1 
 5.000000E-01  5.000000E-01  1.405000E+02  3.554351E+01  1.620690E+07  1.621569E+07  9.806135E-01  1.938650E-02  0.000000E+00  1.024000E+03  1.565989E+02  3.455865E-17  3.232937E-01    1 
 5.000000E-01  5.000000E-01  1.415000E+02  3.550305E+01  1.619686E+07  1.620567E+07  9.805512E-01  1.944883E-02  0.000000E+00  1.024000E+03  1.565337E+02  3.456448E-17  3.235523E-01    1 
 5.000000E-01  5.000000E-01  1.425000E+02  3.546259E+01  1.618683E+07  1.619566E+07  9.804887E-01  1.951129E-02  0.000000E+00  1.024000E+03  1.564684E+02  3.457031E-17  3.238110E-01    1 
 5.000000E-01  5.000000E-01  1.435000E+02  3.542213E+01  1.617679E+07  1.618564E+07  9.804261E-01  1.957390E-02  0.000000E+00  1.024000E+03  1.564031E+02  3.457615E-17  3.240699E-01    1 
 5.000000E-01  5.000000E-01  1.445000E+02  3.538168E+01  1.616676E+07  1.617562E+07  9.803633E-01  1.963666E-02  0.000000E+00  1.024000E+03  1.563378E+02  3.458199E-17  3.243291E-01    1 
 5.000000E-01  5.000000E-01  1.455000E+02  3.534124E+01  1.615672E+07  1.616561E+07  9.803004E-01  1.969959E-02  0.000000E+00  1.024000E+03  1.562725E+02  3.458784E-17  3.245885E-01    1 
 5.000000E-01  5.000000E-01  1.465000E+02  3.530080E+01  1.614669E+07  1.615559E+07  9.802373E-01  1.976269E-02  0.000000E+00  1.024000E+03  1.562071E+02  3.459370E-17  3.248480E-01    1 
 5.000000E-01  5.000000E-01  1.475000E+02  3.526036E+01  1.613665E+07  1.614557E+07  9.801740E-01  1.982598E-02  0.000000E+00  1.024000E+03  1.561417E+02  3.459956E-17  3.251078E-01    1 
 5.000000E-01  5.000000E-01  1.485000E+02  3.521993E+01  1.612662E+07  1.613556E+07  9.801105E-01  1.988947E-02  0.000000E+00  1.024000E+03  1.560763E+02  3.460542E-17  3.253678E-01    1 
 5.000000E-01  5.000000E-01  1.495000E+02  3.517950E+01  1.611658E+07  1.612554E+07  9.800468E-01  1.995316E-02  0.000000E+00  1.024000E+03  1.560108E+02  3.461129E-17  3.256280E-01    1 
 5.000000E-01  5.000000E-01  1.505000E+02  3.513908E+01  1.610655E+07  1.611553E+07  9.799829E-01  2.001709E-02  0.000000E+00  1.024000E+03  1.559453E+02  3.461717E-17  3.258884E-01    1 
 5.000000E-01  5.000000E-01  1.515000E+02  3.509866E+01  1.609652E+07  1.610551E+07  9.799188E-01  2.008125E-02  0.000000E+00  1.024000E+03  1.558798E+02  3.462306E-17  3.261490E-01    1 
 5.000000E-01  5.000000E-01  1.525000E+02  3.505825E+01  1.608648E+07  1.609549E+07  9.798543E-01  2.014567E-02  0.000000E+00  1.024000E+03  1.558142E+02  3.462894E-17  3.264098E-01    1 
 5.000000E-01  5.000000E-01  1.535000E+02  3.501784E+01  1.607645E+07  1.608548E+07  9.797896E-01  2.021036E-02  0.000000E+00  1.024000E+03  1.557487E+02  3.463484E-17  3.266708E-01    1 
 5.000000E-01  5.000000E-01  1.545000E+02  3.497744E+01  1.606641E+07  1.607546E+07  9.797246E-01  2.027535E-02  0.000000E+00  1.024000E+03  1.556831E+02  3.464074E-17  3.269320E-01    1 
 5.000000E-01  5.000000E-01  1.555000E+02  3.493704E+01  1.605638E+07  1.606544E+07  9.796593E-01  2.034066E-02  0.000000E+00  1.024000E+03  1.556174E+02  3.464665E-17  3.271935E-01    1 
 5.000000E-01  5.000000E-01  1.565000E+02  3.489664E+01  1.604634E+07  1.605543E+07  9.795937E-01  2.040630E-02  0.000000E+00  1.024000E+03  1.555518E+02  3.465256E-17  3.274551E-01    1 