TITLE = "  8.60000E+04 [y]"
VARIABLES="X [m]","Y [m]","Z [m]","Temperature [C]","Liquid Pressure [Pa]","Gas Pressure [Pa]","Liquid Saturation","Gas Saturation","Hydrate Saturation","Liquid Density [kg/m^3]","Gas Density [kg/m^3]","Permeability X [m^2]","Porosity","Material ID"
ZONE T="8.60000E+04", STRANDID=1, SOLUTIONTIME=8.60000E+04, I=1, J=1, K=1000, DATAPACKING=POINT
 5.000000E-01  5.000000E-01  5.000000E-01  4.177099E+01  1.685446E+07  1.685782E+07  9.940066E-01  5.993371E-03  0.000000E+00  1.024000E+03  1.591421E+02  3.379583E-17  2.890648E-01    1 
 5.000000E-01  5.000000E-01  1.500000E+00  4.172995E+01  1.684443E+07  1.684782E+07  9.939391E-01  6.060858E-03  0.000000E+00  1.024000E+03  1.590792E+02  3.380093E-17  2.892959E-01    1 
 5.000000E-01  5.000000E-01  2.500000E+00  4.168891E+01  1.683439E+07  1.683782E+07  9.938801E-01  6.119902E-03  0.000000E+00  1.024000E+03  1.590162E+02  3.380603E-17  2.895273E-01    1 
 5.000000E-01  5.000000E-01  3.500000E+00  4.164788E+01  1.682436E+07  1.682781E+07  9.938204E-01  6.179576E-03  0.000000E+00  1.024000E+03  1.589533E+02  3.381113E-17  2.897588E-01    1 
 5.000000E-01  5.000000E-01  4.500000E+00  4.160684E+01  1.681432E+07  1.681781E+07  9.937601E-01  6.239921E-03  0.000000E+00  1.024000E+03  1.588903E+02  3.381624E-17  2.899905E-01    1 
 5.000000E-01  5.000000E-01  5.500000E+00  4.156582E+01  1.680428E+07  1.680780E+07  9.936990E-01  6.300956E-03  0.000000E+00  1.024000E+03  1.588272E+02  3.382135E-17  2.902224E-01    1 
 5.000000E-01  5.000000E-01  6.500000E+00  4.152479E+01  1.679425E+07  1.679780E+07  9.936373E-01  6.362698E-03  0.000000E+00  1.024000E+03  1.587642E+02  3.382647E-17  2.904545E-01    1 
 5.000000E-01  5.000000E-01  7.500000E+00  4.148377E+01  1.678421E+07  1.678780E+07  9.935748E-01  6.425165E-03  0.000000E+00  1.024000E+03  1.587011E+02  3.383160E-17  2.906868E-01    1 
 5.000000E-01  5.000000E-01  8.500000E+00  4.144275E+01  1.677418E+07  1.677779E+07  9.935116E-01  6.488371E-03  0.000000E+00  1.024000E+03  1.586380E+02  3.383673E-17  2.909192E-01    1 
 5.000000E-01  5.000000E-01  9.500000E+00  4.140173E+01  1.676414E+07  1.676779E+07  9.934477E-01  6.552326E-03  0.000000E+00  1.024000E+03  1.585749E+02  3.384186E-17  2.911519E-01    1 
 5.000000E-01  5.000000E-01  1.050000E+01  4.136072E+01  1.675411E+07  1.675779E+07  9.933830E-01  6.617039E-03  0.000000E+00  1.024000E+03  1.585118E+02  3.384700E-17  2.913847E-01    1 
 5.000000E-01  5.000000E-01  1.150000E+01  4.131970E+01  1.674407E+07  1.674778E+07  9.933175E-01  6.682516E-03  0.000000E+00  1.024000E+03  1.584486E+02  3.385214E-17  2.916177E-01    1 
 5.000000E-01  5.000000E-01  1.250000E+01  4.127870E+01  1.673404E+07  1.673778E+07  9.932512E-01  6.748758E-03  0.000000E+00  1.024000E+03  1.583854E+02  3.385729E-17  2.918509E-01    1 
 5.000000E-01  5.000000E-01  1.350000E+01  4.123769E+01  1.672400E+07  1.672778E+07  9.931842E-01  6.815763E-03  0.000000E+00  1.024000E+03  1.583222E+02  3.386244E-17  2.920843E-01    1 
 5.000000E-01  5.000000E-01  1.450000E+01  4.119669E+01  1.671396E+07  1.671778E+07  9.931165E-01  6.883522E-03  0.000000E+00  1.024000E+03  1.582589E+02  3.386760E-17  2.923179E-01    1 
 5.000000E-01  5.000000E-01  1.550000E+01  4.115569E+01  1.670393E+07  1.670777E+07  9.930480E-01  6.952025E-03  0.000000E+00  1.024000E+03  1.581957E+02  3.387276E-17  2.925516E-01    1 
 5.000000E-01  5.000000E-01  1.650000E+01  4.111469E+01  1.669389E+07  1.669777E+07  9.929787E-01  7.021255E-03  0.000000E+00  1.024000E+03  1.581324E+02  3.387793E-17  2.927856E-01    1 
 5.000000E-01  5.000000E-01  1.750000E+01  4.107370E+01  1.668386E+07  1.668777E+07  9.929088E-01  7.091190E-03  0.000000E+00  1.024000E+03  1.580691E+02  3.388310E-17  2.930197E-01    1 
 5.000000E-01  5.000000E-01  1.850000E+01  4.103270E+01  1.667382E+07  1.667777E+07  9.928382E-01  7.161806E-03  0.000000E+00  1.024000E+03  1.580057E+02  3.388828E-17  2.932541E-01    1 
 5.000000E-01  5.000000E-01  1.950000E+01  4.099172E+01  1.666378E+07  1.666777E+07  9.927669E-01  7.233070E-03  0.000000E+00  1.024000E+03  1.579424E+02  3.389346E-17  2.934886E-01    1 
 5.000000E-01  5.000000E-01  2.050000E+01  4.095073E+01  1.665375E+07  1.665777E+07  9.926951E-01  7.304948E-03  0.000000E+00  1.024000E+03  1.578790E+02  3.389865E-17  2.937233E-01    1 
 5.000000E-01  5.000000E-01  2.150000E+01  4.090975E+01  1.664371E+07  1.664777E+07  9.926226E-01  7.377399E-03  0.000000E+00  1.024000E+03  1.578156E+02  3.390384E-17  2.939581E-01    1 
 5.000000E-01  5.000000E-01  2.250000E+01  4.086877E+01  1.663368E+07  1.663777E+07  9.925496E-01  7.450380E-03  0.000000E+00  1.024000E+03  1.577521E+02  3.390904E-17  2.941932E-01    1 
 5.000000E-01  5.000000E-01  2.350000E+01  4.082779E+01  1.662364E+07  1.662777E+07  9.924762E-01  7.523842E-03  0.000000E+00  1.024000E+03  1.576887E+02  3.391424E-17  2.944285E-01    1 
 5.000000E-01  5.000000E-01  2.450000E+01  4.078681E+01  1.661360E+07  1.661777E+07  9.924023E-01  7.597731E-03  0.000000E+00  1.024000E+03  1.576252E+02  3.391945E-17  2.946639E-01    1 
 5.000000E-01  5.000000E-01  2.550000E+01  4.074584E+01  1.660357E+07  1.660777E+07  9.923280E-01  7.671991E-03  0.000000E+00  1.024000E+03  1.575617E+02  3.392466E-17  2.948996E-01    1 
 5.000000E-01  5.000000E-01  2.650000E+01  4.070487E+01  1.659353E+07  1.659777E+07  9.922534E-01  7.746561E-03  0.000000E+00  1.024000E+03  1.574981E+02  3.392988E-17  2.951354E-01    1 
 5.000000E-01  5.000000E-01  2.750000E+01  4.066391E+01  1.658349E+07  1.658777E+07  9.921786E-01  7.821377E-03  0.000000E+00  1.024000E+03  1.574345E+02  3.393510E-17  2.953714E-01    1 
 5.000000E-01  5.000000E-01  2.850000E+01  4.062294E+01  1.657346E+07  1.657777E+07  9.921036E-01  7.896370E-03  0.000000E+00  1.024000E+03  1.573709E+02  3.394033E-17  2.956076E-01    1 
 5.000000E-01  5.000000E-01  2.950000E+01  4.058198E+01  1.656342E+07  1.656777E+07  9.920285E-01  7.971471E-03  0.000000E+00  1.024000E+03  1.573073E+02  3.394556E-17  2.958440E-01    1 
 5.000000E-01  5.000000E-01  3.050000E+01  4.054102E+01  1.655338E+07  1.655777E+07  9.919534E-01  8.046605E-03  0.000000E+00  1.024000E+03  1.572437E+02  3.395080E-17  2.960806E-01    1 
 5.000000E-01  5.000000E-01  3.150000E+01  4.050007E+01  1.654335E+07  1.654777E+07  9.918783E-01  8.121698E-03  0.000000E+00  1.024000E+03  1.571800E+02  3.395604E-17  2.963173E-01    1 
 5.000000E-01  5.000000E-01  3.250000E+01  4.045912E+01  1.653331E+07  1.653777E+07  9.918033E-01  8.196671E-03  0.000000E+00  1.024000E+03  1.571163E+02  3.396129E-17  2.965543E-01    1 
 5.000000E-01  5.000000E-01  3.350000E+01  4.041817E+01  1.652327E+07  1.652776E+07  9.917286E-01  8.271450E-03  0.000000E+00  1.024000E+03  1.570525E+02  3.396654E-17  2.967915E-01    1 
 5.000000E-01  5.000000E-01  3.450000E+01  4.037722E+01  1.651324E+07  1.651776E+07  9.916540E-01  8.345955E-03  0.000000E+00  1.024000E+03  1.569888E+02  3.397180E-17  2.970288E-01    1 
 5.000000E-01  5.000000E-01  3.550000E+01  4.033628E+01  1.650320E+07  1.650776E+07  9.915799E-01  8.420112E-03  0.000000E+00  1.024000E+03  1.569250E+02  3.397706E-17  2.972663E-01    1 
 5.000000E-01  5.000000E-01  3.650000E+01  4.029534E+01  1.649316E+07  1.649776E+07  9.915062E-01  8.493849E-03  0.000000E+00  1.024000E+03  1.568612E+02  3.398233E-17  2.975040E-01    1 
 5.000000E-01  5.000000E-01  3.750000E+01  4.025440E+01  1.648313E+07  1.648776E+07  9.914329E-01  8.567095E-03  0.000000E+00  1.024000E+03  1.567973E+02  3.398760E-17  2.977419E-01    1 
 5.000000E-01  5.000000E-01  3.850000E+01  4.021346E+01  1.647309E+07  1.647775E+07  9.913602E-01  8.639786E-03  0.000000E+00  1.024000E+03  1.567334E+02  3.399288E-17  2.979800E-01    1 
 5.000000E-01  5.000000E-01  3.950000E+01  4.017253E+01  1.646305E+07  1.646775E+07  9.912881E-01  8.711865E-03  0.000000E+00  1.024000E+03  1.566695E+02  3.399816E-17  2.982183E-01    1 
 5.000000E-01  5.000000E-01  4.050000E+01  4.013160E+01  1.645302E+07  1.645775E+07  9.912167E-01  8.783279E-03  0.000000E+00  1.024000E+03  1.566056E+02  3.400345E-17  2.984568E-01    1 
 5.000000E-01  5.000000E-01  4.150000E+01  4.009068E+01  1.644298E+07  1.644774E+07  9.911460E-01  8.853986E-03  0.000000E+00  1.024000E+03  1.565416E+02  3.400874E-17  2.986955E-01    1 
 5.000000E-01  5.000000E-01  4.250000E+01  4.004975E+01  1.643294E+07  1.643774E+07  9.910761E-01  8.923948E-03  0.000000E+00  1.024000E+03  1.564776E+02  3.401404E-17  2.989343E-01    1 
 5.000000E-01  5.000000E-01  4.350000E+01  4.000883E+01  1.642291E+07  1.642773E+07  9.910069E-01  8.993141E-03  0.000000E+00  1.024000E+03  1.564136E+02  3.401934E-17  2.991734E-01    1 
 5.000000E-01  5.000000E-01  4.450000E+01  3.996791E+01  1.641287E+07  1.641773E+07  9.909385E-01  9.061545E-03  0.000000E+00  1.024000E+03  1.563495E+02  3.402465E-17  2.994126E-01    1 
 5.000000E-01  5.000000E-01  4.550000E+01  3.992700E+01  1.640283E+07  1.640772E+07  9.908708E-01  9.129154E-03  0.000000E+00  1.024000E+03  1.562854E+02  3.402996E-17  2.996521E-01    1 
 5.000000E-01  5.000000E-01  4.650000E+01  3.988609E+01  1.639279E+07  1.639772E+07  9.908040E-01  9.195966E-03  0.000000E+00  1.024000E+03  1.562213E+02  3.403528E-17  2.998917E-01    1 
 5.000000E-01  5.000000E-01  4.750000E+01  3.984518E+01  1.638276E+07  1.638771E+07  9.907380E-01  9.261990E-03  0.000000E+00  1.024000E+03  1.561571E+02  3.404060E-17  3.001315E-01    1 
 5.000000E-01  5.000000E-01  4.850000E+01  3.980427E+01  1.637272E+07  1.637770E+07  9.906728E-01  9.327242E-03  0.000000E+00  1.024000E+03  1.560929E+02  3.404593E-17  3.003715E-01    1 
 5.000000E-01  5.000000E-01  4.950000E+01  3.976337E+01  1.636268E+07  1.636769E+07  9.906083E-01  9.391745E-03  0.000000E+00  1.024000E+03  1.560287E+02  3.405126E-17  3.006117E-01    1 
 5.000000E-01  5.000000E-01  5.050000E+01  3.972247E+01  1.635264E+07  1.635769E+07  9.905445E-01  9.455527E-03  0.000000E+00  1.024000E+03  1.559644E+02  3.405660E-17  3.008521E-01    1 
 5.000000E-01  5.000000E-01  5.150000E+01  3.968157E+01  1.634261E+07  1.634768E+07  9.904814E-01  9.518620E-03  0.000000E+00  1.024000E+03  1.559002E+02  3.406195E-17  3.010927E-01    1 
 5.000000E-01  5.000000E-01  5.250000E+01  3.964067E+01  1.633257E+07  1.633767E+07  9.904189E-01  9.581062E-03  0.000000E+00  1.024000E+03  1.558358E+02  3.406729E-17  3.013335E-01    1 
 5.000000E-01  5.000000E-01  5.350000E+01  3.959978E+01  1.632253E+07  1.632766E+07  9.903571E-01  9.642892E-03  0.000000E+00  1.024000E+03  1.557715E+02  3.407265E-17  3.015744E-01    1 
 5.000000E-01  5.000000E-01  5.450000E+01  3.955889E+01  1.631249E+07  1.631765E+07  9.902958E-01  9.704151E-03  0.000000E+00  1.024000E+03  1.557071E+02  3.407801E-17  3.018156E-01    1 
 5.000000E-01  5.000000E-01  5.550000E+01  3.951801E+01  1.630246E+07  1.630764E+07  9.902351E-01  9.764883E-03  0.000000E+00  1.024000E+03  1.556427E+02  3.408337E-17  3.020570E-01    1 
 5.000000E-01  5.000000E-01  5.650000E+01  3.947712E+01  1.629242E+07  1.629763E+07  9.901749E-01  9.825128E-03  0.000000E+00  1.024000E+03  1.555783E+02  3.408874E-17  3.022985E-01    1 
 5.000000E-01  5.000000E-01  5.750000E+01  3.943624E+01  1.628238E+07  1.628762E+07  9.901151E-01  9.884931E-03  0.000000E+00  1.024000E+03  1.555138E+02  3.409411E-17  3.025403E-01    1 
 5.000000E-01  5.000000E-01  5.850000E+01  3.939537E+01  1.627234E+07  1.627761E+07  9.900557E-01  9.944333E-03  0.000000E+00  1.024000E+03  1.554494E+02  3.409949E-17  3.027822E-01    1 
 5.000000E-01  5.000000E-01  5.950000E+01  3.935449E+01  1.626230E+07  1.626759E+07  9.899966E-01  1.000337E-02  0.000000E+00  1.024000E+03  1.553848E+02  3.410488E-17  3.030243E-01    1 
 5.000000E-01  5.000000E-01  6.050000E+01  3.931362E+01  1.625227E+07  1.625758E+07  9.899379E-01  1.006209E-02  0.000000E+00  1.024000E+03  1.553203E+02  3.411027E-17  3.032666E-01    1 
 5.000000E-01  5.000000E-01  6.150000E+01  3.927275E+01  1.624223E+07  1.624757E+07  9.898795E-01  1.012053E-02  0.000000E+00  1.024000E+03  1.552557E+02  3.411566E-17  3.035092E-01    1 
 5.000000E-01  5.000000E-01  6.250000E+01  3.923189E+01  1.623219E+07  1.623756E+07  9.898213E-01  1.017873E-02  0.000000E+00  1.024000E+03  1.551911E+02  3.412106E-17  3.037519E-01    1 
 5.000000E-01  5.000000E-01  6.350000E+01  3.919103E+01  1.622215E+07  1.622755E+07  9.897633E-01  1.023671E-02  0.000000E+00  1.024000E+03  1.551265E+02  3.412647E-17  3.039948E-01    1 
 5.000000E-01  5.000000E-01  6.450000E+01  3.915017E+01  1.621211E+07  1.621753E+07  9.897055E-01  1.029452E-02  0.000000E+00  1.024000E+03  1.550618E+02  3.413188E-17  3.042379E-01    1 
 5.000000E-01  5.000000E-01  6.550000E+01  3.910931E+01  1.620207E+07  1.620752E+07  9.896478E-01  1.035219E-02  0.000000E+00  1.024000E+03  1.549971E+02  3.413729E-17  3.044812E-01    1 
 5.000000E-01  5.000000E-01  6.650000E+01  3.906846E+01  1.619204E+07  1.619751E+07  9.895903E-01  1.040975E-02  0.000000E+00  1.024000E+03  1.549324E+02  3.414271E-17  3.047247E-01    1 
 5.000000E-01  5.000000E-01  6.750000E+01  3.902761E+01  1.618200E+07  1.618749E+07  9.895328E-01  1.046723E-02  0.000000E+00  1.024000E+03  1.548676E+02  3.414814E-17  3.049683E-01    1 
 5.000000E-01  5.000000E-01  6.850000E+01  3.898676E+01  1.617196E+07  1.617748E+07  9.894753E-01  1.052468E-02  0.000000E+00  1.024000E+03  1.548029E+02  3.415357E-17  3.052122E-01    1 
 5.000000E-01  5.000000E-01  6.950000E+01  3.894591E+01  1.616192E+07  1.616747E+07  9.894179E-01  1.058211E-02  0.000000E+00  1.024000E+03  1.547381E+02  3.415901E-17  3.054563E-01    1 
 5.000000E-01  5.000000E-01  7.050000E+01  3.890507E+01  1.615188E+07  1.615746E+07  9.893604E-01  1.063955E-02  0.000000E+00  1.024000E+03  1.546732E+02  3.416445E-17  3.057006E-01    1 
 5.000000E-01  5.000000E-01  7.150000E+01  3.886423E+01  1.614184E+07  1.614744E+07  9.893029E-01  1.069705E-02  0.000000E+00  1.024000E+03  1.546084E+02  3.416989E-17  3.059450E-01    1 
 5.000000E-01  5.000000E-01  7.250000E+01  3.882340E+01  1.613181E+07  1.613743E+07  9.892454E-01  1.075463E-02  0.000000E+00  1.024000E+03  1.545435E+02  3.417535E-17  3.061897E-01    1 
 5.000000E-01  5.000000E-01  7.350000E+01  3.878257E+01  1.612177E+07  1.612741E+07  9.891877E-01  1.081232E-02  0.000000E+00  1.024000E+03  1.544786E+02  3.418080E-17  3.064345E-01    1 
 5.000000E-01  5.000000E-01  7.450000E+01  3.874174E+01  1.611173E+07  1.611740E+07  9.891298E-01  1.087016E-02  0.000000E+00  1.024000E+03  1.544136E+02  3.418627E-17  3.066796E-01    1 
 5.000000E-01  5.000000E-01  7.550000E+01  3.870091E+01  1.610169E+07  1.610739E+07  9.890718E-01  1.092816E-02  0.000000E+00  1.024000E+03  1.543486E+02  3.419173E-17  3.069248E-01    1 
 5.000000E-01  5.000000E-01  7.650000E+01  3.866009E+01  1.609165E+07  1.609737E+07  9.890136E-01  1.098636E-02  0.000000E+00  1.024000E+03  1.542836E+02  3.419721E-17  3.071703E-01    1 
 5.000000E-01  5.000000E-01  7.750000E+01  3.861927E+01  1.608161E+07  1.608736E+07  9.889552E-01  1.104479E-02  0.000000E+00  1.024000E+03  1.542186E+02  3.420268E-17  3.074159E-01    1 
 5.000000E-01  5.000000E-01  7.850000E+01  3.857845E+01  1.607157E+07  1.607735E+07  9.888965E-01  1.110348E-02  0.000000E+00  1.024000E+03  1.541536E+02  3.420817E-17  3.076617E-01    1 
 5.000000E-01  5.000000E-01  7.950000E+01  3.853763E+01  1.606153E+07  1.606733E+07  9.888375E-01  1.116246E-02  0.000000E+00  1.024000E+03  1.540885E+02  3.421366E-17  3.079078E-01    1 
 5.000000E-01  5.000000E-01  8.050000E+01  3.849682E+01  1.605150E+07  1.605732E+07  9.887782E-01  1.122176E-02  0.000000E+00  1.024000E+03  1.540234E+02  3.421915E-17  3.081540E-01    1 
 5.000000E-01  5.000000E-01  8.150000E+01  3.845601E+01  1.604146E+07  1.604731E+07  9.887186E-01  1.128139E-02  0.000000E+00  1.024000E+03  1.539582E+02  3.422465E-17  3.084004E-01    1 
 5.000000E-01  5.000000E-01  8.250000E+01  3.841521E+01  1.603142E+07  1.603729E+07  9.886586E-01  1.134140E-02  0.000000E+00  1.024000E+03  1.538931E+02  3.423015E-17  3.086470E-01    1 
 5.000000E-01  5.000000E-01  8.350000E+01  3.837441E+01  1.602138E+07  1.602728E+07  9.885982E-01  1.140180E-02  0.000000E+00  1.024000E+03  1.538279E+02  3.423566E-17  3.088939E-01    1 
 5.000000E-01  5.000000E-01  8.450000E+01  3.833361E+01  1.601134E+07  1.601727E+07  9.885374E-01  1.146262E-02  0.000000E+00  1.024000E+03  1.537627E+02  3.424118E-17  3.091409E-01    1 
 5.000000E-01  5.000000E-01  8.550000E+01  3.829281E+01  1.600130E+07  1.600725E+07  9.884761E-01  1.152389E-02  0.000000E+00  1.024000E+03  1.536974E+02  3.424670E-17  3.093881E-01    1 
 5.000000E-01  5.000000E-01  8.650000E+01  3.825202E+01  1.599126E+07  1.599724E+07  9.884144E-01  1.158562E-02  0.000000E+00  1.024000E+03  1.536322E+02  3.425222E-17  3.096355E-01    1 
 5.000000E-01  5.000000E-01  8.750000E+01  3.821122E+01  1.598122E+07  1.598723E+07  9.883522E-01  1.164783E-02  0.000000E+00  1.024000E+03  1.535669E+02  3.425775E-17  3.098831E-01    1 
 5.000000E-01  5.000000E-01  8.850000E+01  3.817044E+01  1.597118E+07  1.597721E+07  9.882895E-01  1.171054E-02  0.000000E+00  1.024000E+03  1.535015E+02  3.426329E-17  3.101309E-01    1 
 5.000000E-01  5.000000E-01  8.950000E+01  3.812965E+01  1.596114E+07  1.596720E+07  9.882262E-01  1.177378E-02  0.000000E+00  1.024000E+03  1.534362E+02  3.426883E-17  3.103789E-01    1 
 5.000000E-01  5.000000E-01  9.050000E+01  3.808887E+01  1.595110E+07  1.595719E+07  9.881625E-01  1.183754E-02  0.000000E+00  1.024000E+03  1.533708E+02  3.427438E-17  3.106271E-01    1 
 5.000000E-01  5.000000E-01  9.150000E+01  3.804809E+01  1.594106E+07  1.594718E+07  9.880982E-01  1.190184E-02  0.000000E+00  1.024000E+03  1.533054E+02  3.427993E-17  3.108755E-01    1 
 5.000000E-01  5.000000E-01  9.250000E+01  3.800732E+01  1.593102E+07  1.593716E+07  9.880333E-01  1.196669E-02  0.000000E+00  1.024000E+03  1.532400E+02  3.428549E-17  3.111241E-01    1 
 5.000000E-01  5.000000E-01  9.350000E+01  3.796654E+01  1.592098E+07  1.592715E+07  9.879679E-01  1.203208E-02  0.000000E+00  1.024000E+03  1.531745E+02  3.429105E-17  3.113729E-01    1 
 5.000000E-01  5.000000E-01  9.450000E+01  3.792577E+01  1.591094E+07  1.591714E+07  9.879020E-01  1.209802E-02  0.000000E+00  1.024000E+03  1.531090E+02  3.429662E-17  3.116219E-01    1 
 5.000000E-01  5.000000E-01  9.550000E+01  3.788501E+01  1.590090E+07  1.590713E+07  9.878355E-01  1.216450E-02  0.000000E+00  1.024000E+03  1.530435E+02  3.430219E-17  3.118711E-01    1 
 5.000000E-01  5.000000E-01  9.650000E+01  3.784424E+01  1.589087E+07  1.589711E+07  9.877685E-01  1.223150E-02  0.000000E+00  1.024000E+03  1.529780E+02  3.430777E-17  3.121205E-01    1 
 5.000000E-01  5.000000E-01  9.750000E+01  3.780348E+01  1.588083E+07  1.588710E+07  9.877010E-01  1.229903E-02  0.000000E+00  1.024000E+03  1.529124E+02  3.431336E-17  3.123701E-01    1 
 5.000000E-01  5.000000E-01  9.850000E+01  3.776272E+01  1.587079E+07  1.587709E+07  9.876330E-01  1.236704E-02  0.000000E+00  1.024000E+03  1.528468E+02  3.431895E-17  3.126199E-01    1 
 5.000000E-01  5.000000E-01  9.950000E+01  3.772197E+01  1.586075E+07  1.586708E+07  9.875645E-01  1.243553E-02  0.000000E+00  1.024000E+03  1.527812E+02  3.432454E-17  3.128699E-01    1 
 5.000000E-01  5.000000E-01  1.005000E+02  3.768122E+01  1.585071E+07  1.585707E+07  9.874955E-01  1.250445E-02  0.000000E+00  1.024000E+03  1.527156E+02  3.433014E-17  3.131201E-01    1 
 5.000000E-01  5.000000E-01  1.015000E+02  3.764047E+01  1.584067E+07  1.584706E+07  9.874262E-01  1.257379E-02  0.000000E+00  1.024000E+03  1.526499E+02  3.433575E-17  3.133705E-01    1 
 5.000000E-01  5.000000E-01  1.025000E+02  3.759972E+01  1.583063E+07  1.583704E+07  9.873565E-01  1.264349E-02  0.000000E+00  1.024000E+03  1.525842E+02  3.434136E-17  3.136211E-01    1 
 5.000000E-01  5.000000E-01  1.035000E+02  3.755898E+01  1.582058E+07  1.582703E+07  9.872865E-01  1.271352E-02  0.000000E+00  1.024000E+03  1.525185E+02  3.434698E-17  3.138719E-01    1 
 5.000000E-01  5.000000E-01  1.045000E+02  3.751824E+01  1.581054E+07  1.581702E+07  9.872162E-01  1.278384E-02  0.000000E+00  1.024000E+03  1.524527E+02  3.435260E-17  3.141229E-01    1 
 5.000000E-01  5.000000E-01  1.055000E+02  3.747750E+01  1.580050E+07  1.580701E+07  9.871456E-01  1.285439E-02  0.000000E+00  1.024000E+03  1.523869E+02  3.435823E-17  3.143741E-01    1 
 5.000000E-01  5.000000E-01  1.065000E+02  3.743677E+01  1.579046E+07  1.579700E+07  9.870749E-01  1.292513E-02  0.000000E+00  1.024000E+03  1.523211E+02  3.436386E-17  3.146255E-01    1 
 5.000000E-01  5.000000E-01  1.075000E+02  3.739604E+01  1.578042E+07  1.578698E+07  9.870040E-01  1.299601E-02  0.000000E+00  1.024000E+03  1.522553E+02  3.436950E-17  3.148771E-01    1 
 5.000000E-01  5.000000E-01  1.085000E+02  3.735531E+01  1.577038E+07  1.577697E+07  9.869330E-01  1.306697E-02  0.000000E+00  1.024000E+03  1.521894E+02  3.437514E-17  3.151289E-01    1 
 5.000000E-01  5.000000E-01  1.095000E+02  3.731458E+01  1.576034E+07  1.576696E+07  9.868620E-01  1.313796E-02  0.000000E+00  1.024000E+03  1.521235E+02  3.438079E-17  3.153809E-01    1 
 5.000000E-01  5.000000E-01  1.105000E+02  3.727386E+01  1.575030E+07  1.575695E+07  9.867911E-01  1.320893E-02  0.000000E+00  1.024000E+03  1.520576E+02  3.438645E-17  3.156331E-01    1 
 5.000000E-01  5.000000E-01  1.115000E+02  3.723314E+01  1.574026E+07  1.574693E+07  9.867202E-01  1.327984E-02  0.000000E+00  1.024000E+03  1.519916E+02  3.439211E-17  3.158855E-01    1 
 5.000000E-01  5.000000E-01  1.125000E+02  3.719243E+01  1.573022E+07  1.573692E+07  9.866494E-01  1.335063E-02  0.000000E+00  1.024000E+03  1.519256E+02  3.439777E-17  3.161381E-01    1 
 5.000000E-01  5.000000E-01  1.135000E+02  3.715171E+01  1.572018E+07  1.572691E+07  9.865787E-01  1.342126E-02  0.000000E+00  1.024000E+03  1.518596E+02  3.440344E-17  3.163909E-01    1 
 5.000000E-01  5.000000E-01  1.145000E+02  3.711100E+01  1.571014E+07  1.571690E+07  9.865083E-01  1.349168E-02  0.000000E+00  1.024000E+03  1.517936E+02  3.440912E-17  3.166439E-01    1 
 5.000000E-01  5.000000E-01  1.155000E+02  3.707030E+01  1.570010E+07  1.570688E+07  9.864381E-01  1.356186E-02  0.000000E+00  1.024000E+03  1.517275E+02  3.441480E-17  3.168971E-01    1 
 5.000000E-01  5.000000E-01  1.165000E+02  3.702959E+01  1.569006E+07  1.569687E+07  9.863682E-01  1.363176E-02  0.000000E+00  1.024000E+03  1.516614E+02  3.442049E-17  3.171506E-01    1 
 5.000000E-01  5.000000E-01  1.175000E+02  3.698889E+01  1.568002E+07  1.568685E+07  9.862986E-01  1.370135E-02  0.000000E+00  1.024000E+03  1.515952E+02  3.442618E-17  3.174042E-01    1 
 5.000000E-01  5.000000E-01  1.185000E+02  3.694819E+01  1.566997E+07  1.567684E+07  9.862294E-01  1.377061E-02  0.000000E+00  1.024000E+03  1.515291E+02  3.443188E-17  3.176580E-01    1 
 5.000000E-01  5.000000E-01  1.195000E+02  3.690750E+01  1.565993E+07  1.566683E+07  9.861605E-01  1.383952E-02  0.000000E+00  1.024000E+03  1.514629E+02  3.443758E-17  3.179120E-01    1 
 5.000000E-01  5.000000E-01  1.205000E+02  3.686681E+01  1.564989E+07  1.565681E+07  9.860919E-01  1.390805E-02  0.000000E+00  1.024000E+03  1.513966E+02  3.444329E-17  3.181663E-01    1 
 5.000000E-01  5.000000E-01  1.215000E+02  3.682612E+01  1.563985E+07  1.564680E+07  9.860238E-01  1.397620E-02  0.000000E+00  1.024000E+03  1.513304E+02  3.444901E-17  3.184207E-01    1 
 5.000000E-01  5.000000E-01  1.225000E+02  3.678543E+01  1.562981E+07  1.563678E+07  9.859560E-01  1.404396E-02  0.000000E+00  1.024000E+03  1.512641E+02  3.445473E-17  3.186753E-01    1 
 5.000000E-01  5.000000E-01  1.235000E+02  3.674475E+01  1.561977E+07  1.562677E+07  9.858887E-01  1.411133E-02  0.000000E+00  1.024000E+03  1.511978E+02  3.446046E-17  3.189302E-01    1 
 5.000000E-01  5.000000E-01  1.245000E+02  3.670407E+01  1.560973E+07  1.561675E+07  9.858217E-01  1.417830E-02  0.000000E+00  1.024000E+03  1.511314E+02  3.446619E-17  3.191852E-01    1 
 5.000000E-01  5.000000E-01  1.255000E+02  3.666339E+01  1.559969E+07  1.560673E+07  9.857551E-01  1.424488E-02  0.000000E+00  1.024000E+03  1.510651E+02  3.447192E-17  3.194405E-01    1 
 5.000000E-01  5.000000E-01  1.265000E+02  3.662272E+01  1.558964E+07  1.559672E+07  9.856889E-01  1.431107E-02  0.000000E+00  1.024000E+03  1.509986E+02  3.447767E-17  3.196959E-01    1 
 5.000000E-01  5.000000E-01  1.275000E+02  3.658204E+01  1.557960E+07  1.558670E+07  9.856231E-01  1.437689E-02  0.000000E+00  1.024000E+03  1.509322E+02  3.448342E-17  3.199516E-01    1 
 5.000000E-01  5.000000E-01  1.285000E+02  3.654138E+01  1.556956E+07  1.557668E+07  9.855577E-01  1.444234E-02  0.000000E+00  1.024000E+03  1.508657E+02  3.448917E-17  3.202074E-01    1 
 5.000000E-01  5.000000E-01  1.295000E+02  3.650071E+01  1.555952E+07  1.556667E+07  9.854926E-01  1.450744E-02  0.000000E+00  1.024000E+03  1.507992E+02  3.449493E-17  3.204635E-01    1 
 5.000000E-01  5.000000E-01  1.305000E+02  3.646005E+01  1.554948E+07  1.555665E+07  9.854278E-01  1.457220E-02  0.000000E+00  1.024000E+03  1.507327E+02  3.450069E-17  3.207197E-01    1 
 5.000000E-01  5.000000E-01  1.315000E+02  3.641939E+01  1.553944E+07  1.554663E+07  9.853634E-01  1.463664E-02  0.000000E+00  1.024000E+03  1.506661E+02  3.450646E-17  3.209762E-01    1 
 5.000000E-01  5.000000E-01  1.325000E+02  3.637873E+01  1.552939E+07  1.553661E+07  9.852992E-01  1.470077E-02  0.000000E+00  1.024000E+03  1.505995E+02  3.451224E-17  3.212329E-01    1 
 5.000000E-01  5.000000E-01  1.335000E+02  3.633808E+01  1.551935E+07  1.552659E+07  9.852354E-01  1.476461E-02  0.000000E+00  1.024000E+03  1.505329E+02  3.451802E-17  3.214898E-01    1 
 5.000000E-01  5.000000E-01  1.345000E+02  3.629743E+01  1.550931E+07  1.551658E+07  9.851718E-01  1.482819E-02  0.000000E+00  1.024000E+03  1.504663E+02  3.452381E-17  3.217469E-01    1 
 5.000000E-01  5.000000E-01  1.355000E+02  3.625679E+01  1.549927E+07  1.550656E+07  9.851085E-01  1.489150E-02  0.000000E+00  1.024000E+03  1.503996E+02  3.452960E-17  3.220042E-01    1 
 5.000000E-01  5.000000E-01  1.365000E+02  3.621614E+01  1.548923E+07  1.549654E+07  9.850454E-01  1.495458E-02  0.000000E+00  1.024000E+03  1.503329E+02  3.453540E-17  3.222617E-01    1 
 5.000000E-01  5.000000E-01  1.375000E+02  3.617550E+01  1.547918E+07  1.548652E+07  9.849826E-01  1.501744E-02  0.000000E+00  1.024000E+03  1.502661E+02  3.454121E-17  3.225194E-01    1 
 5.000000E-01  5.000000E-01  1.385000E+02  3.613486E+01  1.546914E+07  1.547650E+07  9.849199E-01  1.508009E-02  0.000000E+00  1.024000E+03  1.501994E+02  3.454701E-17  3.227773E-01    1 
 5.000000E-01  5.000000E-01  1.395000E+02  3.609423E+01  1.545910E+07  1.546648E+07  9.848574E-01  1.514256E-02  0.000000E+00  1.024000E+03  1.501326E+02  3.455283E-17  3.230354E-01    1 
 5.000000E-01  5.000000E-01  1.405000E+02  3.605360E+01  1.544906E+07  1.545646E+07  9.847952E-01  1.520485E-02  0.000000E+00  1.024000E+03  1.500657E+02  3.455865E-17  3.232937E-01    1 
 5.000000E-01  5.000000E-01  1.415000E+02  3.601297E+01  1.543901E+07  1.544644E+07  9.847330E-01  1.526698E-02  0.000000E+00  1.024000E+03  1.499989E+02  3.456448E-17  3.235523E-01    1 
 5.000000E-01  5.000000E-01  1.425000E+02  3.597234E+01  1.542897E+07  1.543642E+07  9.846710E-01  1.532897E-02  0.000000E+00  1.024000E+03  1.499320E+02  3.457031E-17  3.238110E-01    1 
 5.000000E-01  5.000000E-01  1.435000E+02  3.593172E+01  1.541893E+07  1.542640E+07  9.846092E-01  1.539084E-02  0.000000E+00  1.024000E+03  1.498651E+02  3.457615E-17  3.240699E-01    1 
 5.000000E-01  5.000000E-01  1.445000E+02  3.589110E+01  1.540889E+07  1.541638E+07  9.845474E-01  1.545259E-02  0.000000E+00  1.024000E+03  1.497981E+02  3.458199E-17  3.243291E-01    1 
 5.000000E-01  5.000000E-01  1.455000E+02  3.585049E+01  1.539884E+07  1.540636E+07  9.844858E-01  1.551424E-02  0.000000E+00  1.024000E+03  1.497311E+02  3.458784E-17  3.245885E-01    1 
 5.000000E-01  5.000000E-01  1.465000E+02  3.580987E+01  1.538880E+07  1.539634E+07  9.844242E-01  1.557580E-02  0.000000E+00  1.024000E+03  1.496641E+02  3.459370E-17  3.248480E-01    1 
 5.000000E-01  5.000000E-01  1.475000E+02  3.576927E+01  1.537876E+07  1.538632E+07  9.843627E-01  1.563728E-02  0.000000E+00  1.024000E+03  1.495971E+02  3.459956E-17  3.251078E-01    1 
 5.000000E-01  5.000000E-01  1.485000E+02  3.572866E+01  1.536871E+07  1.537630E+07  9.843013E-01  1.569870E-02  0.000000E+00  1.024000E+03  1.495300E+02  3.460542E-17  3.253678E-01    1 
 5.000000E-01  5.000000E-01  1.495000E+02  3.568805E+01  1.535867E+07  1.536628E+07  9.842399E-01  1.576007E-02  0.000000E+00  1.024000E+03  1.494629E+02  3.461129E-17  3.256280E-01    1 
 5.000000E-01  5.000000E-01  1.505000E+02  3.564745E+01  1.534863E+07  1.535626E+07  9.841786E-01  1.582139E-02  0.000000E+00  1.024000E+03  1.493958E+02  3.461717E-17  3.258884E-01    1 
 5.000000E-01  5.000000E-01  1.515000E+02  3.560686E+01  1.533859E+07  1.534623E+07  9.841173E-01  1.588269E-02  0.000000E+00  1.024000E+03  1.493286E+02  3.462306E-17  3.261490E-01    1 
 5.000000E-01  5.000000E-01  1.525000E+02  3.556626E+01  1.532854E+07  1.533621E+07  9.840560E-01  1.594396E-02  0.000000E+00  1.024000E+03  1.492614E+02  3.462894E-17  3.264098E-01    1 
 5.000000E-01  5.000000E-01  1.535000E+02  3.552567E+01  1.531850E+07  1.532619E+07  9.839948E-01  1.600521E-02  0.000000E+00  1.024000E+03  1.491942E+02  3.463484E-17  3.266708E-01    1 
 5.000000E-01  5.000000E-01  1.545000E+02  3.548508E+01  1.530846E+07  1.531617E+07  9.839335E-01  1.606646E-02  0.000000E+00  1.024000E+03  1.491269E+02  3.464074E-17  3.269320E-01    1 
 5.000000E-01  5.000000E-01  1.555000E+02  3.544450E+01  1.529841E+07  1.530615E+07  9.838723E-01  1.612771E-02  0.000000E+00  1.024000E+03  1.490597E+02  3.464665E-17  3.271935E-01    1 
 5.000000E-01  5.000000E-01  1.565000E+02  3.540392E+01  1.528837E+07  1.529613E+07  9.838110E-01  1.618898E-02  0.000000E+00  1.024000E+03  1.489924E+02  3.465256E-17  3.274551E-01    1 