TITLE = "  5.67000E+04 [y]"
VARIABLES="X [m]","Y [m]","Z [m]","Temperature [C]","Liquid Pressure [Pa]","Gas Pressure [Pa]","Liquid Saturation","Gas Saturation","Hydrate Saturation","Liquid Density [kg/m^3]","Gas Density [kg/m^3]","Permeability X [m^2]","Porosity","Material ID"
ZONE T="5.67000E+04", STRANDID=1, SOLUTIONTIME=5.67000E+04, I=1, J=1, K=1000, DATAPACKING=POINT
 5.000000E-01  5.000000E-01  5.000000E-01  4.254537E+01  1.697723E+07  0.000000E+00  1.000000E+00  0.000000E+00  0.000000E+00  1.024000E+03  0.000000E+00  3.379583E-17  2.890648E-01    1 
 5.000000E-01  5.000000E-01  1.500000E+00  4.250437E+01  1.696719E+07  0.000000E+00  1.000000E+00  0.000000E+00  0.000000E+00  1.024000E+03  0.000000E+00  3.380093E-17  2.892959E-01    1 
 5.000000E-01  5.000000E-01  2.500000E+00  4.246336E+01  1.695716E+07  0.000000E+00  1.000000E+00  0.000000E+00  0.000000E+00  1.024000E+03  0.000000E+00  3.380603E-17  2.895273E-01    1 
 5.000000E-01  5.000000E-01  3.500000E+00  4.242237E+01  1.694712E+07  0.000000E+00  1.000000E+00  0.000000E+00  0.000000E+00  1.024000E+03  0.000000E+00  3.381113E-17  2.897588E-01    1 
 5.000000E-01  5.000000E-01  4.500000E+00  4.238137E+01  1.693709E+07  0.000000E+00  1.000000E+00  0.000000E+00  0.000000E+00  1.024000E+03  0.000000E+00  3.381624E-17  2.899905E-01    1 
 5.000000E-01  5.000000E-01  5.500000E+00  4.234037E+01  1.692705E+07  0.000000E+00  1.000000E+00  0.000000E+00  0.000000E+00  1.024000E+03  0.000000E+00  3.382135E-17  2.902224E-01    1 
 5.000000E-01  5.000000E-01  6.500000E+00  4.229938E+01  1.691702E+07  0.000000E+00  1.000000E+00  0.000000E+00  0.000000E+00  1.024000E+03  0.000000E+00  3.382647E-17  2.904545E-01    1 
 5.000000E-01  5.000000E-01  7.500000E+00  4.225840E+01  1.690698E+07  0.000000E+00  1.000000E+00  0.000000E+00  0.000000E+00  1.024000E+03  0.000000E+00  3.383160E-17  2.906868E-01    1 
 5.000000E-01  5.000000E-01  8.500000E+00  4.221741E+01  1.689695E+07  0.000000E+00  1.000000E+00  0.000000E+00  0.000000E+00  1.024000E+03  0.000000E+00  3.383673E-17  2.909192E-01    1 
 5.000000E-01  5.000000E-01  9.500000E+00  4.217643E+01  1.688691E+07  0.000000E+00  1.000000E+00  0.000000E+00  0.000000E+00  1.024000E+03  0.000000E+00  3.384186E-17  2.911519E-01    1 
 5.000000E-01  5.000000E-01  1.050000E+01  4.213545E+01  1.687688E+07  1.687689E+07  9.999758E-01  2.423170E-05  0.000000E+00  1.024000E+03  1.591384E+02  3.384700E-17  2.913847E-01    1 
 5.000000E-01  5.000000E-01  1.150000E+01  4.209448E+01  1.686684E+07  1.686687E+07  9.999555E-01  4.450186E-05  0.000000E+00  1.024000E+03  1.590753E+02  3.385214E-17  2.916177E-01    1 
 5.000000E-01  5.000000E-01  1.250000E+01  4.205350E+01  1.685681E+07  1.685685E+07  9.999322E-01  6.781393E-05  0.000000E+00  1.024000E+03  1.590123E+02  3.385729E-17  2.918509E-01    1 
 5.000000E-01  5.000000E-01  1.350000E+01  4.201253E+01  1.684677E+07  1.684683E+07  9.999064E-01  9.360507E-05  0.000000E+00  1.024000E+03  1.589493E+02  3.386244E-17  2.920843E-01    1 
 5.000000E-01  5.000000E-01  1.450000E+01  4.197157E+01  1.683674E+07  1.683681E+07  9.998825E-01  1.175204E-04  0.000000E+00  1.024000E+03  1.588862E+02  3.386760E-17  2.923179E-01    1 
 5.000000E-01  5.000000E-01  1.550000E+01  4.193060E+01  1.682670E+07  1.682679E+07  9.998544E-01  1.456395E-04  0.000000E+00  1.024000E+03  1.588231E+02  3.387276E-17  2.925516E-01    1 
 5.000000E-01  5.000000E-01  1.650000E+01  4.188964E+01  1.681667E+07  1.681677E+07  9.998247E-01  1.752842E-04  0.000000E+00  1.024000E+03  1.587600E+02  3.387793E-17  2.927856E-01    1 
 5.000000E-01  5.000000E-01  1.750000E+01  4.184868E+01  1.680663E+07  1.680675E+07  9.997944E-01  2.056191E-04  0.000000E+00  1.024000E+03  1.586968E+02  3.388310E-17  2.930197E-01    1 
 5.000000E-01  5.000000E-01  1.850000E+01  4.180773E+01  1.679659E+07  1.679674E+07  9.997622E-01  2.377751E-04  0.000000E+00  1.024000E+03  1.586337E+02  3.388828E-17  2.932541E-01    1 
 5.000000E-01  5.000000E-01  1.950000E+01  4.176678E+01  1.678656E+07  1.678672E+07  9.997289E-01  2.710676E-04  0.000000E+00  1.024000E+03  1.585705E+02  3.389346E-17  2.934886E-01    1 
 5.000000E-01  5.000000E-01  2.050000E+01  4.172583E+01  1.677652E+07  1.677671E+07  9.996946E-01  3.054082E-04  0.000000E+00  1.024000E+03  1.585073E+02  3.389865E-17  2.937233E-01    1 
 5.000000E-01  5.000000E-01  2.150000E+01  4.168488E+01  1.676649E+07  1.676669E+07  9.996590E-01  3.409834E-04  0.000000E+00  1.024000E+03  1.584441E+02  3.390384E-17  2.939581E-01    1 
 5.000000E-01  5.000000E-01  2.250000E+01  4.164394E+01  1.675645E+07  1.675668E+07  9.996228E-01  3.772216E-04  0.000000E+00  1.024000E+03  1.583809E+02  3.390904E-17  2.941932E-01    1 
 5.000000E-01  5.000000E-01  2.350000E+01  4.160300E+01  1.674642E+07  1.674667E+07  9.995861E-01  4.138964E-04  0.000000E+00  1.024000E+03  1.583176E+02  3.391424E-17  2.944285E-01    1 
 5.000000E-01  5.000000E-01  2.450000E+01  4.156206E+01  1.673638E+07  1.673665E+07  9.995490E-01  4.510033E-04  0.000000E+00  1.024000E+03  1.582543E+02  3.391945E-17  2.946639E-01    1 
 5.000000E-01  5.000000E-01  2.550000E+01  4.152112E+01  1.672634E+07  1.672664E+07  9.995114E-01  4.886261E-04  0.000000E+00  1.024000E+03  1.581910E+02  3.392466E-17  2.948996E-01    1 
 5.000000E-01  5.000000E-01  2.650000E+01  4.148019E+01  1.671631E+07  1.671663E+07  9.994732E-01  5.268349E-04  0.000000E+00  1.024000E+03  1.581276E+02  3.392988E-17  2.951354E-01    1 
 5.000000E-01  5.000000E-01  2.750000E+01  4.143926E+01  1.670627E+07  1.670662E+07  9.994344E-01  5.655931E-04  0.000000E+00  1.024000E+03  1.580643E+02  3.393510E-17  2.953714E-01    1 
 5.000000E-01  5.000000E-01  2.850000E+01  4.139834E+01  1.669624E+07  1.669660E+07  9.993951E-01  6.048946E-04  0.000000E+00  1.024000E+03  1.580009E+02  3.394033E-17  2.956076E-01    1 
 5.000000E-01  5.000000E-01  2.950000E+01  4.135742E+01  1.668620E+07  1.668659E+07  9.993552E-01  6.447714E-04  0.000000E+00  1.024000E+03  1.579375E+02  3.394556E-17  2.958440E-01    1 
 5.000000E-01  5.000000E-01  3.050000E+01  4.131650E+01  1.667617E+07  1.667658E+07  9.993147E-01  6.853053E-04  0.000000E+00  1.024000E+03  1.578741E+02  3.395080E-17  2.960806E-01    1 
 5.000000E-01  5.000000E-01  3.150000E+01  4.127558E+01  1.666613E+07  1.666657E+07  9.992734E-01  7.265773E-04  0.000000E+00  1.024000E+03  1.578106E+02  3.395604E-17  2.963173E-01    1 
 5.000000E-01  5.000000E-01  3.250000E+01  4.123466E+01  1.665609E+07  1.665656E+07  9.992313E-01  7.686566E-04  0.000000E+00  1.024000E+03  1.577471E+02  3.396129E-17  2.965543E-01    1 
 5.000000E-01  5.000000E-01  3.350000E+01  4.119375E+01  1.664606E+07  1.664655E+07  9.991884E-01  8.116048E-04  0.000000E+00  1.024000E+03  1.576836E+02  3.396654E-17  2.967915E-01    1 
 5.000000E-01  5.000000E-01  3.450000E+01  4.115285E+01  1.663602E+07  1.663654E+07  9.991445E-01  8.554575E-04  0.000000E+00  1.024000E+03  1.576201E+02  3.397180E-17  2.970288E-01    1 
 5.000000E-01  5.000000E-01  3.550000E+01  4.111194E+01  1.662599E+07  1.662653E+07  9.990998E-01  9.001991E-04  0.000000E+00  1.024000E+03  1.575565E+02  3.397706E-17  2.972663E-01    1 
 5.000000E-01  5.000000E-01  3.650000E+01  4.107104E+01  1.661595E+07  1.661652E+07  9.990542E-01  9.457532E-04  0.000000E+00  1.024000E+03  1.574930E+02  3.398233E-17  2.975040E-01    1 
 5.000000E-01  5.000000E-01  3.750000E+01  4.103014E+01  1.660591E+07  1.660651E+07  9.990080E-01  9.919925E-04  0.000000E+00  1.024000E+03  1.574294E+02  3.398760E-17  2.977419E-01    1 
 5.000000E-01  5.000000E-01  3.850000E+01  4.098924E+01  1.659588E+07  1.659650E+07  9.989612E-01  1.038756E-03  0.000000E+00  1.024000E+03  1.573658E+02  3.399288E-17  2.979800E-01    1 
 5.000000E-01  5.000000E-01  3.950000E+01  4.094835E+01  1.658584E+07  1.658649E+07  9.989141E-01  1.085866E-03  0.000000E+00  1.024000E+03  1.573021E+02  3.399816E-17  2.982183E-01    1 
 5.000000E-01  5.000000E-01  4.050000E+01  4.090746E+01  1.657580E+07  1.657648E+07  9.988669E-01  1.133149E-03  0.000000E+00  1.024000E+03  1.572384E+02  3.400345E-17  2.984568E-01    1 
 5.000000E-01  5.000000E-01  4.150000E+01  4.086657E+01  1.656577E+07  1.656648E+07  9.988195E-01  1.180451E-03  0.000000E+00  1.024000E+03  1.571747E+02  3.400874E-17  2.986955E-01    1 
 5.000000E-01  5.000000E-01  4.250000E+01  4.082568E+01  1.655573E+07  1.655647E+07  9.987723E-01  1.227654E-03  0.000000E+00  1.024000E+03  1.571110E+02  3.401404E-17  2.989343E-01    1 
 5.000000E-01  5.000000E-01  4.350000E+01  4.078480E+01  1.654569E+07  1.654646E+07  9.987253E-01  1.274682E-03  0.000000E+00  1.024000E+03  1.570473E+02  3.401934E-17  2.991734E-01    1 
 5.000000E-01  5.000000E-01  4.450000E+01  4.074392E+01  1.653566E+07  1.653645E+07  9.986785E-01  1.321498E-03  0.000000E+00  1.024000E+03  1.569835E+02  3.402465E-17  2.994126E-01    1 
 5.000000E-01  5.000000E-01  4.550000E+01  4.070305E+01  1.652562E+07  1.652644E+07  9.986319E-01  1.368113E-03  0.000000E+00  1.024000E+03  1.569197E+02  3.402996E-17  2.996521E-01    1 
 5.000000E-01  5.000000E-01  4.650000E+01  4.066217E+01  1.651558E+07  1.651643E+07  9.985854E-01  1.414576E-03  0.000000E+00  1.024000E+03  1.568558E+02  3.403528E-17  2.998917E-01    1 
 5.000000E-01  5.000000E-01  4.750000E+01  4.062130E+01  1.650555E+07  1.650642E+07  9.985390E-01  1.460980E-03  0.000000E+00  1.024000E+03  1.567919E+02  3.404060E-17  3.001315E-01    1 
 5.000000E-01  5.000000E-01  4.850000E+01  4.058044E+01  1.649551E+07  1.649641E+07  9.984926E-01  1.507450E-03  0.000000E+00  1.024000E+03  1.567281E+02  3.404593E-17  3.003715E-01    1 
 5.000000E-01  5.000000E-01  4.950000E+01  4.053957E+01  1.648547E+07  1.648640E+07  9.984459E-01  1.554134E-03  0.000000E+00  1.024000E+03  1.566641E+02  3.405126E-17  3.006117E-01    1 
 5.000000E-01  5.000000E-01  5.050000E+01  4.049871E+01  1.647544E+07  1.647639E+07  9.983988E-01  1.601189E-03  0.000000E+00  1.024000E+03  1.566002E+02  3.405660E-17  3.008521E-01    1 
 5.000000E-01  5.000000E-01  5.150000E+01  4.045785E+01  1.646540E+07  1.646638E+07  9.983512E-01  1.648760E-03  0.000000E+00  1.024000E+03  1.565362E+02  3.406195E-17  3.010927E-01    1 
 5.000000E-01  5.000000E-01  5.250000E+01  4.041699E+01  1.645536E+07  1.645637E+07  9.983030E-01  1.696969E-03  0.000000E+00  1.024000E+03  1.564722E+02  3.406729E-17  3.013335E-01    1 
 5.000000E-01  5.000000E-01  5.350000E+01  4.037614E+01  1.644533E+07  1.644637E+07  9.982541E-01  1.745902E-03  0.000000E+00  1.024000E+03  1.564082E+02  3.407265E-17  3.015744E-01    1 
 5.000000E-01  5.000000E-01  5.450000E+01  4.033529E+01  1.643529E+07  1.643636E+07  9.982044E-01  1.795601E-03  0.000000E+00  1.024000E+03  1.563442E+02  3.407801E-17  3.018156E-01    1 
 5.000000E-01  5.000000E-01  5.550000E+01  4.029444E+01  1.642525E+07  1.642635E+07  9.981539E-01  1.846065E-03  0.000000E+00  1.024000E+03  1.562801E+02  3.408337E-17  3.020570E-01    1 
 5.000000E-01  5.000000E-01  5.650000E+01  4.025360E+01  1.641521E+07  1.641634E+07  9.981027E-01  1.897254E-03  0.000000E+00  1.024000E+03  1.562160E+02  3.408874E-17  3.022985E-01    1 
 5.000000E-01  5.000000E-01  5.750000E+01  4.021276E+01  1.640518E+07  1.640633E+07  9.980509E-01  1.949098E-03  0.000000E+00  1.024000E+03  1.561519E+02  3.409411E-17  3.025403E-01    1 
 5.000000E-01  5.000000E-01  5.850000E+01  4.017192E+01  1.639514E+07  1.639633E+07  9.979985E-01  2.001509E-03  0.000000E+00  1.024000E+03  1.560877E+02  3.409949E-17  3.027822E-01    1 
 5.000000E-01  5.000000E-01  5.950000E+01  4.013109E+01  1.638510E+07  1.638632E+07  9.979456E-01  2.054395E-03  0.000000E+00  1.024000E+03  1.560236E+02  3.410488E-17  3.030243E-01    1 
 5.000000E-01  5.000000E-01  6.050000E+01  4.009025E+01  1.637507E+07  1.637631E+07  9.978923E-01  2.107679E-03  0.000000E+00  1.024000E+03  1.559594E+02  3.411027E-17  3.032666E-01    1 
 5.000000E-01  5.000000E-01  6.150000E+01  4.004942E+01  1.636503E+07  1.636631E+07  9.978387E-01  2.161310E-03  0.000000E+00  1.024000E+03  1.558952E+02  3.411566E-17  3.035092E-01    1 
 5.000000E-01  5.000000E-01  6.250000E+01  4.000860E+01  1.635499E+07  1.635630E+07  9.977847E-01  2.215272E-03  0.000000E+00  1.024000E+03  1.558309E+02  3.412106E-17  3.037519E-01    1 
 5.000000E-01  5.000000E-01  6.350000E+01  3.996777E+01  1.634495E+07  1.634629E+07  9.977304E-01  2.269590E-03  0.000000E+00  1.024000E+03  1.557666E+02  3.412647E-17  3.039948E-01    1 
 5.000000E-01  5.000000E-01  6.450000E+01  3.992695E+01  1.633492E+07  1.633629E+07  9.976757E-01  2.324329E-03  0.000000E+00  1.024000E+03  1.557024E+02  3.413188E-17  3.042379E-01    1 
 5.000000E-01  5.000000E-01  6.550000E+01  3.988613E+01  1.632488E+07  1.632628E+07  9.976204E-01  2.379586E-03  0.000000E+00  1.024000E+03  1.556380E+02  3.413729E-17  3.044812E-01    1 
 5.000000E-01  5.000000E-01  6.650000E+01  3.984532E+01  1.631484E+07  1.631628E+07  9.975645E-01  2.435479E-03  0.000000E+00  1.024000E+03  1.555737E+02  3.414271E-17  3.047247E-01    1 
 5.000000E-01  5.000000E-01  6.750000E+01  3.980451E+01  1.630480E+07  1.630627E+07  9.975079E-01  2.492141E-03  0.000000E+00  1.024000E+03  1.555093E+02  3.414814E-17  3.049683E-01    1 
 5.000000E-01  5.000000E-01  6.850000E+01  3.976370E+01  1.629477E+07  1.629627E+07  9.974503E-01  2.549704E-03  0.000000E+00  1.024000E+03  1.554449E+02  3.415357E-17  3.052122E-01    1 
 5.000000E-01  5.000000E-01  6.950000E+01  3.972289E+01  1.628473E+07  1.628626E+07  9.973917E-01  2.608287E-03  0.000000E+00  1.024000E+03  1.553805E+02  3.415901E-17  3.054563E-01    1 
 5.000000E-01  5.000000E-01  7.050000E+01  3.968209E+01  1.627469E+07  1.627626E+07  9.973320E-01  2.667994E-03  0.000000E+00  1.024000E+03  1.553161E+02  3.416445E-17  3.057006E-01    1 
 5.000000E-01  5.000000E-01  7.150000E+01  3.964129E+01  1.626465E+07  1.626625E+07  9.972711E-01  2.728904E-03  0.000000E+00  1.024000E+03  1.552516E+02  3.416989E-17  3.059450E-01    1 
 5.000000E-01  5.000000E-01  7.250000E+01  3.960049E+01  1.625461E+07  1.625625E+07  9.972089E-01  2.791067E-03  0.000000E+00  1.024000E+03  1.551871E+02  3.417535E-17  3.061897E-01    1 
 5.000000E-01  5.000000E-01  7.350000E+01  3.955969E+01  1.624458E+07  1.624625E+07  9.971455E-01  2.854506E-03  0.000000E+00  1.024000E+03  1.551226E+02  3.418080E-17  3.064345E-01    1 
 5.000000E-01  5.000000E-01  7.450000E+01  3.951890E+01  1.623454E+07  1.623625E+07  9.970808E-01  2.919216E-03  0.000000E+00  1.024000E+03  1.550581E+02  3.418627E-17  3.066796E-01    1 
 5.000000E-01  5.000000E-01  7.550000E+01  3.947811E+01  1.622450E+07  1.622625E+07  9.970148E-01  2.985163E-03  0.000000E+00  1.024000E+03  1.549935E+02  3.419173E-17  3.069248E-01    1 
 5.000000E-01  5.000000E-01  7.650000E+01  3.943733E+01  1.621446E+07  1.621625E+07  9.969477E-01  3.052289E-03  0.000000E+00  1.024000E+03  1.549290E+02  3.419721E-17  3.071703E-01    1 
 5.000000E-01  5.000000E-01  7.750000E+01  3.939654E+01  1.620442E+07  1.620625E+07  9.968795E-01  3.120513E-03  0.000000E+00  1.024000E+03  1.548644E+02  3.420268E-17  3.074159E-01    1 
 5.000000E-01  5.000000E-01  7.850000E+01  3.935576E+01  1.619438E+07  1.619625E+07  9.968103E-01  3.189736E-03  0.000000E+00  1.024000E+03  1.547997E+02  3.420817E-17  3.076617E-01    1 
 5.000000E-01  5.000000E-01  7.950000E+01  3.931499E+01  1.618435E+07  1.618625E+07  9.967402E-01  3.259850E-03  0.000000E+00  1.024000E+03  1.547351E+02  3.421366E-17  3.079078E-01    1 
 5.000000E-01  5.000000E-01  8.050000E+01  3.927421E+01  1.617431E+07  1.617625E+07  9.966693E-01  3.330741E-03  0.000000E+00  1.024000E+03  1.546704E+02  3.421915E-17  3.081540E-01    1 
 5.000000E-01  5.000000E-01  8.150000E+01  3.923344E+01  1.616427E+07  1.616625E+07  9.965977E-01  3.402304E-03  0.000000E+00  1.024000E+03  1.546057E+02  3.422465E-17  3.084004E-01    1 
 5.000000E-01  5.000000E-01  8.250000E+01  3.919267E+01  1.615423E+07  1.615625E+07  9.965255E-01  3.474454E-03  0.000000E+00  1.024000E+03  1.545410E+02  3.423015E-17  3.086470E-01    1 
 5.000000E-01  5.000000E-01  8.350000E+01  3.915190E+01  1.614419E+07  1.614625E+07  9.964529E-01  3.547132E-03  0.000000E+00  1.024000E+03  1.544763E+02  3.423566E-17  3.088939E-01    1 
 5.000000E-01  5.000000E-01  8.450000E+01  3.911114E+01  1.613415E+07  1.613625E+07  9.963797E-01  3.620313E-03  0.000000E+00  1.024000E+03  1.544115E+02  3.424118E-17  3.091409E-01    1 
 5.000000E-01  5.000000E-01  8.550000E+01  3.907038E+01  1.612412E+07  1.612626E+07  9.963060E-01  3.694006E-03  0.000000E+00  1.024000E+03  1.543467E+02  3.424670E-17  3.093881E-01    1 
 5.000000E-01  5.000000E-01  8.650000E+01  3.902962E+01  1.611408E+07  1.611626E+07  9.962318E-01  3.768245E-03  0.000000E+00  1.024000E+03  1.542819E+02  3.425222E-17  3.096355E-01    1 
 5.000000E-01  5.000000E-01  8.750000E+01  3.898887E+01  1.610404E+07  1.610626E+07  9.961569E-01  3.843080E-03  0.000000E+00  1.024000E+03  1.542170E+02  3.425775E-17  3.098831E-01    1 
 5.000000E-01  5.000000E-01  8.850000E+01  3.894811E+01  1.609400E+07  1.609626E+07  9.960814E-01  3.918558E-03  0.000000E+00  1.024000E+03  1.541522E+02  3.426329E-17  3.101309E-01    1 
 5.000000E-01  5.000000E-01  8.950000E+01  3.890736E+01  1.608396E+07  1.608626E+07  9.960053E-01  3.994700E-03  0.000000E+00  1.024000E+03  1.540873E+02  3.426883E-17  3.103789E-01    1 
 5.000000E-01  5.000000E-01  9.050000E+01  3.886662E+01  1.607392E+07  1.607627E+07  9.959285E-01  4.071488E-03  0.000000E+00  1.024000E+03  1.540223E+02  3.427438E-17  3.106271E-01    1 
 5.000000E-01  5.000000E-01  9.150000E+01  3.882587E+01  1.606388E+07  1.606627E+07  9.958512E-01  4.148845E-03  0.000000E+00  1.024000E+03  1.539574E+02  3.427993E-17  3.108755E-01    1 
 5.000000E-01  5.000000E-01  9.250000E+01  3.878513E+01  1.605384E+07  1.605627E+07  9.957734E-01  4.226633E-03  0.000000E+00  1.024000E+03  1.538924E+02  3.428549E-17  3.111241E-01    1 
 5.000000E-01  5.000000E-01  9.350000E+01  3.874439E+01  1.604380E+07  1.604628E+07  9.956954E-01  4.304647E-03  0.000000E+00  1.024000E+03  1.538274E+02  3.429105E-17  3.113729E-01    1 
 5.000000E-01  5.000000E-01  9.450000E+01  3.870366E+01  1.603376E+07  1.603628E+07  9.956174E-01  4.382633E-03  0.000000E+00  1.024000E+03  1.537624E+02  3.429662E-17  3.116219E-01    1 
 5.000000E-01  5.000000E-01  9.550000E+01  3.866293E+01  1.602372E+07  1.602628E+07  9.955397E-01  4.460295E-03  0.000000E+00  1.024000E+03  1.536973E+02  3.430219E-17  3.118711E-01    1 
 5.000000E-01  5.000000E-01  9.650000E+01  3.862220E+01  1.601368E+07  1.601628E+07  9.954627E-01  4.537323E-03  0.000000E+00  1.024000E+03  1.536322E+02  3.430777E-17  3.121205E-01    1 
 5.000000E-01  5.000000E-01  9.750000E+01  3.858147E+01  1.600365E+07  1.600628E+07  9.953866E-01  4.613411E-03  0.000000E+00  1.024000E+03  1.535671E+02  3.431336E-17  3.123701E-01    1 
 5.000000E-01  5.000000E-01  9.850000E+01  3.854075E+01  1.599361E+07  1.599629E+07  9.953117E-01  4.688282E-03  0.000000E+00  1.024000E+03  1.535019E+02  3.431895E-17  3.126199E-01    1 
 5.000000E-01  5.000000E-01  9.950000E+01  3.850002E+01  1.598357E+07  1.598628E+07  9.952383E-01  4.761706E-03  0.000000E+00  1.024000E+03  1.534367E+02  3.432454E-17  3.128699E-01    1 
 5.000000E-01  5.000000E-01  1.005000E+02  3.845931E+01  1.597353E+07  1.597628E+07  9.951665E-01  4.833515E-03  0.000000E+00  1.024000E+03  1.533715E+02  3.433014E-17  3.131201E-01    1 
 5.000000E-01  5.000000E-01  1.015000E+02  3.841859E+01  1.596349E+07  1.596628E+07  9.950964E-01  4.903609E-03  0.000000E+00  1.024000E+03  1.533062E+02  3.433575E-17  3.133705E-01    1 
 5.000000E-01  5.000000E-01  1.025000E+02  3.837788E+01  1.595345E+07  1.595628E+07  9.950280E-01  4.971959E-03  0.000000E+00  1.024000E+03  1.532409E+02  3.434136E-17  3.136211E-01    1 
 5.000000E-01  5.000000E-01  1.035000E+02  3.833717E+01  1.594341E+07  1.594627E+07  9.949614E-01  5.038599E-03  0.000000E+00  1.024000E+03  1.531756E+02  3.434698E-17  3.138719E-01    1 
 5.000000E-01  5.000000E-01  1.045000E+02  3.829646E+01  1.593337E+07  1.593627E+07  9.948964E-01  5.103619E-03  0.000000E+00  1.024000E+03  1.531102E+02  3.435260E-17  3.141229E-01    1 
 5.000000E-01  5.000000E-01  1.055000E+02  3.825576E+01  1.592333E+07  1.592626E+07  9.948329E-01  5.167146E-03  0.000000E+00  1.024000E+03  1.530448E+02  3.435823E-17  3.143741E-01    1 
 5.000000E-01  5.000000E-01  1.065000E+02  3.821506E+01  1.591329E+07  1.591625E+07  9.947707E-01  5.229334E-03  0.000000E+00  1.024000E+03  1.529793E+02  3.436386E-17  3.146255E-01    1 
 5.000000E-01  5.000000E-01  1.075000E+02  3.817436E+01  1.590325E+07  1.590624E+07  9.947097E-01  5.290344E-03  0.000000E+00  1.024000E+03  1.529139E+02  3.436950E-17  3.148771E-01    1 
 5.000000E-01  5.000000E-01  1.085000E+02  3.813366E+01  1.589321E+07  1.589624E+07  9.946497E-01  5.350334E-03  0.000000E+00  1.024000E+03  1.528483E+02  3.437514E-17  3.151289E-01    1 
 5.000000E-01  5.000000E-01  1.095000E+02  3.809297E+01  1.588317E+07  1.588623E+07  9.945906E-01  5.409448E-03  0.000000E+00  1.024000E+03  1.527828E+02  3.438079E-17  3.153809E-01    1 
 5.000000E-01  5.000000E-01  1.105000E+02  3.805228E+01  1.587313E+07  1.587622E+07  9.945322E-01  5.467811E-03  0.000000E+00  1.024000E+03  1.527172E+02  3.438645E-17  3.156331E-01    1 
 5.000000E-01  5.000000E-01  1.115000E+02  3.801159E+01  1.586309E+07  1.586621E+07  9.944745E-01  5.525521E-03  0.000000E+00  1.024000E+03  1.526516E+02  3.439211E-17  3.158855E-01    1 
 5.000000E-01  5.000000E-01  1.125000E+02  3.797091E+01  1.585304E+07  1.585620E+07  9.944173E-01  5.582656E-03  0.000000E+00  1.024000E+03  1.525860E+02  3.439777E-17  3.161381E-01    1 
 5.000000E-01  5.000000E-01  1.135000E+02  3.793023E+01  1.584300E+07  1.584618E+07  9.943607E-01  5.639275E-03  0.000000E+00  1.024000E+03  1.525203E+02  3.440344E-17  3.163909E-01    1 
 5.000000E-01  5.000000E-01  1.145000E+02  3.788955E+01  1.583296E+07  1.583617E+07  9.943046E-01  5.695417E-03  0.000000E+00  1.024000E+03  1.524546E+02  3.440912E-17  3.166439E-01    1 
 5.000000E-01  5.000000E-01  1.155000E+02  3.784888E+01  1.582292E+07  1.582616E+07  9.942489E-01  5.751114E-03  0.000000E+00  1.024000E+03  1.523889E+02  3.441480E-17  3.168971E-01    1 
 5.000000E-01  5.000000E-01  1.165000E+02  3.780820E+01  1.581288E+07  1.581615E+07  9.941936E-01  5.806388E-03  0.000000E+00  1.024000E+03  1.523231E+02  3.442049E-17  3.171506E-01    1 
 5.000000E-01  5.000000E-01  1.175000E+02  3.776754E+01  1.580284E+07  1.580614E+07  9.941387E-01  5.861260E-03  0.000000E+00  1.024000E+03  1.522573E+02  3.442618E-17  3.174042E-01    1 
 5.000000E-01  5.000000E-01  1.185000E+02  3.772687E+01  1.579280E+07  1.579612E+07  9.940842E-01  5.915750E-03  0.000000E+00  1.024000E+03  1.521915E+02  3.443188E-17  3.176580E-01    1 
 5.000000E-01  5.000000E-01  1.195000E+02  3.768621E+01  1.578276E+07  1.578611E+07  9.940301E-01  5.969883E-03  0.000000E+00  1.024000E+03  1.521256E+02  3.443758E-17  3.179120E-01    1 
 5.000000E-01  5.000000E-01  1.205000E+02  3.764555E+01  1.577272E+07  1.577610E+07  9.939763E-01  6.023685E-03  0.000000E+00  1.024000E+03  1.520598E+02  3.444329E-17  3.181663E-01    1 
 5.000000E-01  5.000000E-01  1.215000E+02  3.760489E+01  1.576268E+07  1.576608E+07  9.939228E-01  6.077186E-03  0.000000E+00  1.024000E+03  1.519938E+02  3.444901E-17  3.184207E-01    1 
 5.000000E-01  5.000000E-01  1.225000E+02  3.756424E+01  1.575264E+07  1.575607E+07  9.938696E-01  6.130422E-03  0.000000E+00  1.024000E+03  1.519279E+02  3.445473E-17  3.186753E-01    1 
 5.000000E-01  5.000000E-01  1.235000E+02  3.752358E+01  1.574260E+07  1.574606E+07  9.938166E-01  6.183429E-03  0.000000E+00  1.024000E+03  1.518619E+02  3.446046E-17  3.189302E-01    1 
 5.000000E-01  5.000000E-01  1.245000E+02  3.748294E+01  1.573255E+07  1.573604E+07  9.937638E-01  6.236248E-03  0.000000E+00  1.024000E+03  1.517959E+02  3.446619E-17  3.191852E-01    1 
 5.000000E-01  5.000000E-01  1.255000E+02  3.744229E+01  1.572251E+07  1.572603E+07  9.937111E-01  6.288919E-03  0.000000E+00  1.024000E+03  1.517299E+02  3.447192E-17  3.194405E-01    1 
 5.000000E-01  5.000000E-01  1.265000E+02  3.740165E+01  1.571247E+07  1.571601E+07  9.936585E-01  6.341484E-03  0.000000E+00  1.024000E+03  1.516638E+02  3.447767E-17  3.196959E-01    1 
 5.000000E-01  5.000000E-01  1.275000E+02  3.736101E+01  1.570243E+07  1.570600E+07  9.936060E-01  6.393985E-03  0.000000E+00  1.024000E+03  1.515978E+02  3.448342E-17  3.199516E-01    1 
 5.000000E-01  5.000000E-01  1.285000E+02  3.732037E+01  1.569239E+07  1.569598E+07  9.935535E-01  6.446462E-03  0.000000E+00  1.024000E+03  1.515316E+02  3.448917E-17  3.202074E-01    1 
 5.000000E-01  5.000000E-01  1.295000E+02  3.727974E+01  1.568235E+07  1.568597E+07  9.935010E-01  6.498955E-03  0.000000E+00  1.024000E+03  1.514655E+02  3.449493E-17  3.204635E-01    1 
 5.000000E-01  5.000000E-01  1.305000E+02  3.723911E+01  1.567231E+07  1.567595E+07  9.934485E-01  6.551502E-03  0.000000E+00  1.024000E+03  1.513993E+02  3.450069E-17  3.207197E-01    1 
 5.000000E-01  5.000000E-01  1.315000E+02  3.719848E+01  1.566226E+07  1.566594E+07  9.933959E-01  6.604140E-03  0.000000E+00  1.024000E+03  1.513331E+02  3.450646E-17  3.209762E-01    1 
 5.000000E-01  5.000000E-01  1.325000E+02  3.715786E+01  1.565222E+07  1.565592E+07  9.933431E-01  6.656904E-03  0.000000E+00  1.024000E+03  1.512669E+02  3.451224E-17  3.212329E-01    1 
 5.000000E-01  5.000000E-01  1.335000E+02  3.711724E+01  1.564218E+07  1.564591E+07  9.932902E-01  6.709828E-03  0.000000E+00  1.024000E+03  1.512006E+02  3.451802E-17  3.214898E-01    1 
 5.000000E-01  5.000000E-01  1.345000E+02  3.707662E+01  1.563214E+07  1.563589E+07  9.932371E-01  6.762946E-03  0.000000E+00  1.024000E+03  1.511343E+02  3.452381E-17  3.217469E-01    1 
 5.000000E-01  5.000000E-01  1.355000E+02  3.703600E+01  1.562210E+07  1.562588E+07  9.931837E-01  6.816289E-03  0.000000E+00  1.024000E+03  1.510680E+02  3.452960E-17  3.220042E-01    1 
 5.000000E-01  5.000000E-01  1.365000E+02  3.699539E+01  1.561206E+07  1.561586E+07  9.931301E-01  6.869889E-03  0.000000E+00  1.024000E+03  1.510017E+02  3.453540E-17  3.222617E-01    1 
 5.000000E-01  5.000000E-01  1.375000E+02  3.695478E+01  1.560201E+07  1.560585E+07  9.930762E-01  6.923779E-03  0.000000E+00  1.024000E+03  1.509353E+02  3.454121E-17  3.225194E-01    1 
 5.000000E-01  5.000000E-01  1.385000E+02  3.691417E+01  1.559197E+07  1.559583E+07  9.930220E-01  6.977990E-03  0.000000E+00  1.024000E+03  1.508689E+02  3.454701E-17  3.227773E-01    1 
 5.000000E-01  5.000000E-01  1.395000E+02  3.687357E+01  1.558193E+07  1.558582E+07  9.929674E-01  7.032555E-03  0.000000E+00  1.024000E+03  1.508025E+02  3.455283E-17  3.230354E-01    1 
 5.000000E-01  5.000000E-01  1.405000E+02  3.683297E+01  1.557189E+07  1.557580E+07  9.929125E-01  7.087508E-03  0.000000E+00  1.024000E+03  1.507360E+02  3.455865E-17  3.232937E-01    1 
 5.000000E-01  5.000000E-01  1.415000E+02  3.679237E+01  1.556185E+07  1.556579E+07  9.928571E-01  7.142882E-03  0.000000E+00  1.024000E+03  1.506695E+02  3.456448E-17  3.235523E-01    1 
 5.000000E-01  5.000000E-01  1.425000E+02  3.675178E+01  1.555180E+07  1.555577E+07  9.928013E-01  7.198716E-03  0.000000E+00  1.024000E+03  1.506030E+02  3.457031E-17  3.238110E-01    1 
 5.000000E-01  5.000000E-01  1.435000E+02  3.671119E+01  1.554176E+07  1.554576E+07  9.927450E-01  7.255046E-03  0.000000E+00  1.024000E+03  1.505365E+02  3.457615E-17  3.240699E-01    1 
 5.000000E-01  5.000000E-01  1.445000E+02  3.667060E+01  1.553172E+07  1.553574E+07  9.926881E-01  7.311911E-03  0.000000E+00  1.024000E+03  1.504699E+02  3.458199E-17  3.243291E-01    1 
 5.000000E-01  5.000000E-01  1.455000E+02  3.663001E+01  1.552168E+07  1.552573E+07  9.926306E-01  7.369352E-03  0.000000E+00  1.024000E+03  1.504033E+02  3.458784E-17  3.245885E-01    1 
 5.000000E-01  5.000000E-01  1.465000E+02  3.658943E+01  1.551163E+07  1.551571E+07  9.925726E-01  7.427410E-03  0.000000E+00  1.024000E+03  1.503367E+02  3.459370E-17  3.248480E-01    1 
 5.000000E-01  5.000000E-01  1.475000E+02  3.654885E+01  1.550159E+07  1.550570E+07  9.925139E-01  7.486126E-03  0.000000E+00  1.024000E+03  1.502701E+02  3.459956E-17  3.251078E-01    1 
 5.000000E-01  5.000000E-01  1.485000E+02  3.650827E+01  1.549155E+07  1.549569E+07  9.924545E-01  7.545540E-03  0.000000E+00  1.024000E+03  1.502034E+02  3.460542E-17  3.253678E-01    1 
 5.000000E-01  5.000000E-01  1.495000E+02  3.646770E+01  1.548151E+07  1.548567E+07  9.923943E-01  7.605692E-03  0.000000E+00  1.024000E+03  1.501367E+02  3.461129E-17  3.256280E-01    1 
 5.000000E-01  5.000000E-01  1.505000E+02  3.642713E+01  1.547146E+07  1.547566E+07  9.923334E-01  7.666615E-03  0.000000E+00  1.024000E+03  1.500700E+02  3.461717E-17  3.258884E-01    1 
 5.000000E-01  5.000000E-01  1.515000E+02  3.638656E+01  1.546142E+07  1.546565E+07  9.922717E-01  7.728342E-03  0.000000E+00  1.024000E+03  1.500032E+02  3.462306E-17  3.261490E-01    1 
 5.000000E-01  5.000000E-01  1.525000E+02  3.634599E+01  1.545138E+07  1.545563E+07  9.922091E-01  7.790894E-03  0.000000E+00  1.024000E+03  1.499365E+02  3.462894E-17  3.264098E-01    1 
 5.000000E-01  5.000000E-01  1.535000E+02  3.630543E+01  1.544133E+07  1.544562E+07  9.921457E-01  7.854289E-03  0.000000E+00  1.024000E+03  1.498697E+02  3.463484E-17  3.266708E-01    1 
 5.000000E-01  5.000000E-01  1.545000E+02  3.626487E+01  1.543129E+07  1.543561E+07  9.920815E-01  7.918530E-03  0.000000E+00  1.024000E+03  1.498028E+02  3.464074E-17  3.269320E-01    1 
 5.000000E-01  5.000000E-01  1.555000E+02  3.622431E+01  1.542125E+07  1.542560E+07  9.920164E-01  7.983612E-03  0.000000E+00  1.024000E+03  1.497360E+02  3.464665E-17  3.271935E-01    1 
 5.000000E-01  5.000000E-01  1.565000E+02  3.618376E+01  1.541120E+07  1.541559E+07  9.919505E-01  8.049517E-03  0.000000E+00  1.024000E+03  1.496691E+02  3.465256E-17  3.274551E-01    1 