TITLE = "  3.34000E+04 [y]"
VARIABLES="X [m]","Y [m]","Z [m]","Temperature [C]","Liquid Pressure [Pa]","Gas Pressure [Pa]","Liquid Saturation","Gas Saturation","Hydrate Saturation","Liquid Density [kg/m^3]","Gas Density [kg/m^3]","Permeability X [m^2]","Porosity","Material ID"
ZONE T="3.34000E+04", STRANDID=1, SOLUTIONTIME=3.34000E+04, I=1, J=1, K=1000, DATAPACKING=POINT
 5.000000E-01  5.000000E-01  5.000000E-01  4.269015E+01  1.737815E+07  0.000000E+00  1.000000E+00  0.000000E+00  0.000000E+00  1.024000E+03  0.000000E+00  3.379583E-17  2.890648E-01    1 
 5.000000E-01  5.000000E-01  1.500000E+00  4.264914E+01  1.736812E+07  0.000000E+00  1.000000E+00  0.000000E+00  0.000000E+00  1.024000E+03  0.000000E+00  3.380093E-17  2.892959E-01    1 
 5.000000E-01  5.000000E-01  2.500000E+00  4.260815E+01  1.735808E+07  0.000000E+00  1.000000E+00  0.000000E+00  0.000000E+00  1.024000E+03  0.000000E+00  3.380603E-17  2.895273E-01    1 
 5.000000E-01  5.000000E-01  3.500000E+00  4.256715E+01  1.734805E+07  0.000000E+00  1.000000E+00  0.000000E+00  0.000000E+00  1.024000E+03  0.000000E+00  3.381113E-17  2.897588E-01    1 
 5.000000E-01  5.000000E-01  4.500000E+00  4.252617E+01  1.733801E+07  0.000000E+00  1.000000E+00  0.000000E+00  0.000000E+00  1.024000E+03  0.000000E+00  3.381624E-17  2.899905E-01    1 
 5.000000E-01  5.000000E-01  5.500000E+00  4.248519E+01  1.732798E+07  0.000000E+00  1.000000E+00  0.000000E+00  0.000000E+00  1.024000E+03  0.000000E+00  3.382135E-17  2.902224E-01    1 
 5.000000E-01  5.000000E-01  6.500000E+00  4.244422E+01  1.731794E+07  0.000000E+00  1.000000E+00  0.000000E+00  0.000000E+00  1.024000E+03  0.000000E+00  3.382647E-17  2.904545E-01    1 
 5.000000E-01  5.000000E-01  7.500000E+00  4.240325E+01  1.730790E+07  0.000000E+00  1.000000E+00  0.000000E+00  0.000000E+00  1.024000E+03  0.000000E+00  3.383160E-17  2.906868E-01    1 
 5.000000E-01  5.000000E-01  8.500000E+00  4.236229E+01  1.729787E+07  0.000000E+00  1.000000E+00  0.000000E+00  0.000000E+00  1.024000E+03  0.000000E+00  3.383673E-17  2.909192E-01    1 
 5.000000E-01  5.000000E-01  9.500000E+00  4.232133E+01  1.728783E+07  0.000000E+00  1.000000E+00  0.000000E+00  0.000000E+00  1.024000E+03  0.000000E+00  3.384186E-17  2.911519E-01    1 
 5.000000E-01  5.000000E-01  1.050000E+01  4.228038E+01  1.727780E+07  0.000000E+00  1.000000E+00  0.000000E+00  0.000000E+00  1.024000E+03  0.000000E+00  3.384700E-17  2.913847E-01    1 
 5.000000E-01  5.000000E-01  1.150000E+01  4.223944E+01  1.726776E+07  0.000000E+00  1.000000E+00  0.000000E+00  0.000000E+00  1.024000E+03  0.000000E+00  3.385214E-17  2.916177E-01    1 
 5.000000E-01  5.000000E-01  1.250000E+01  4.219850E+01  1.725773E+07  0.000000E+00  1.000000E+00  0.000000E+00  0.000000E+00  1.024000E+03  0.000000E+00  3.385729E-17  2.918509E-01    1 
 5.000000E-01  5.000000E-01  1.350000E+01  4.215757E+01  1.724769E+07  0.000000E+00  1.000000E+00  0.000000E+00  0.000000E+00  1.024000E+03  0.000000E+00  3.386244E-17  2.920843E-01    1 
 5.000000E-01  5.000000E-01  1.450000E+01  4.211664E+01  1.723766E+07  0.000000E+00  1.000000E+00  0.000000E+00  0.000000E+00  1.024000E+03  0.000000E+00  3.386760E-17  2.923179E-01    1 
 5.000000E-01  5.000000E-01  1.550000E+01  4.207572E+01  1.722762E+07  0.000000E+00  1.000000E+00  0.000000E+00  0.000000E+00  1.024000E+03  0.000000E+00  3.387276E-17  2.925516E-01    1 
 5.000000E-01  5.000000E-01  1.650000E+01  4.203480E+01  1.721759E+07  0.000000E+00  1.000000E+00  0.000000E+00  0.000000E+00  1.024000E+03  0.000000E+00  3.387793E-17  2.927856E-01    1 
 5.000000E-01  5.000000E-01  1.750000E+01  4.199389E+01  1.720755E+07  0.000000E+00  1.000000E+00  0.000000E+00  0.000000E+00  1.024000E+03  0.000000E+00  3.388310E-17  2.930197E-01    1 
 5.000000E-01  5.000000E-01  1.850000E+01  4.195299E+01  1.719752E+07  0.000000E+00  1.000000E+00  0.000000E+00  0.000000E+00  1.024000E+03  0.000000E+00  3.388828E-17  2.932541E-01    1 
 5.000000E-01  5.000000E-01  1.950000E+01  4.191209E+01  1.718748E+07  0.000000E+00  1.000000E+00  0.000000E+00  0.000000E+00  1.024000E+03  0.000000E+00  3.389346E-17  2.934886E-01    1 
 5.000000E-01  5.000000E-01  2.050000E+01  4.187120E+01  1.717745E+07  0.000000E+00  1.000000E+00  0.000000E+00  0.000000E+00  1.024000E+03  0.000000E+00  3.389865E-17  2.937233E-01    1 
 5.000000E-01  5.000000E-01  2.150000E+01  4.183032E+01  1.716741E+07  0.000000E+00  1.000000E+00  0.000000E+00  0.000000E+00  1.024000E+03  0.000000E+00  3.390384E-17  2.939581E-01    1 
 5.000000E-01  5.000000E-01  2.250000E+01  4.178944E+01  1.715738E+07  0.000000E+00  1.000000E+00  0.000000E+00  0.000000E+00  1.024000E+03  0.000000E+00  3.390904E-17  2.941932E-01    1 
 5.000000E-01  5.000000E-01  2.350000E+01  4.174856E+01  1.714734E+07  0.000000E+00  1.000000E+00  0.000000E+00  0.000000E+00  1.024000E+03  0.000000E+00  3.391424E-17  2.944285E-01    1 
 5.000000E-01  5.000000E-01  2.450000E+01  4.170770E+01  1.713731E+07  0.000000E+00  1.000000E+00  0.000000E+00  0.000000E+00  1.024000E+03  0.000000E+00  3.391945E-17  2.946639E-01    1 
 5.000000E-01  5.000000E-01  2.550000E+01  4.166683E+01  1.712727E+07  0.000000E+00  1.000000E+00  0.000000E+00  0.000000E+00  1.024000E+03  0.000000E+00  3.392466E-17  2.948996E-01    1 
 5.000000E-01  5.000000E-01  2.650000E+01  4.162598E+01  1.711724E+07  0.000000E+00  1.000000E+00  0.000000E+00  0.000000E+00  1.024000E+03  0.000000E+00  3.392988E-17  2.951354E-01    1 
 5.000000E-01  5.000000E-01  2.750000E+01  4.158513E+01  1.710720E+07  0.000000E+00  1.000000E+00  0.000000E+00  0.000000E+00  1.024000E+03  0.000000E+00  3.393510E-17  2.953714E-01    1 
 5.000000E-01  5.000000E-01  2.850000E+01  4.154428E+01  1.709716E+07  0.000000E+00  1.000000E+00  0.000000E+00  0.000000E+00  1.024000E+03  0.000000E+00  3.394033E-17  2.956076E-01    1 
 5.000000E-01  5.000000E-01  2.950000E+01  4.150345E+01  1.708713E+07  0.000000E+00  1.000000E+00  0.000000E+00  0.000000E+00  1.024000E+03  0.000000E+00  3.394556E-17  2.958440E-01    1 
 5.000000E-01  5.000000E-01  3.050000E+01  4.146261E+01  1.707709E+07  0.000000E+00  1.000000E+00  0.000000E+00  0.000000E+00  1.024000E+03  0.000000E+00  3.395080E-17  2.960806E-01    1 
 5.000000E-01  5.000000E-01  3.150000E+01  4.142179E+01  1.706706E+07  0.000000E+00  1.000000E+00  0.000000E+00  0.000000E+00  1.024000E+03  0.000000E+00  3.395604E-17  2.963173E-01    1 
 5.000000E-01  5.000000E-01  3.250000E+01  4.138097E+01  1.705702E+07  0.000000E+00  1.000000E+00  0.000000E+00  0.000000E+00  1.024000E+03  0.000000E+00  3.396129E-17  2.965543E-01    1 
 5.000000E-01  5.000000E-01  3.350000E+01  4.134015E+01  1.704699E+07  0.000000E+00  1.000000E+00  0.000000E+00  0.000000E+00  1.024000E+03  0.000000E+00  3.396654E-17  2.967915E-01    1 
 5.000000E-01  5.000000E-01  3.450000E+01  4.129934E+01  1.703695E+07  0.000000E+00  1.000000E+00  0.000000E+00  0.000000E+00  1.024000E+03  0.000000E+00  3.397180E-17  2.970288E-01    1 
 5.000000E-01  5.000000E-01  3.550000E+01  4.125854E+01  1.702692E+07  0.000000E+00  1.000000E+00  0.000000E+00  0.000000E+00  1.024000E+03  0.000000E+00  3.397706E-17  2.972663E-01    1 
 5.000000E-01  5.000000E-01  3.650000E+01  4.121774E+01  1.701688E+07  0.000000E+00  1.000000E+00  0.000000E+00  0.000000E+00  1.024000E+03  0.000000E+00  3.398233E-17  2.975040E-01    1 
 5.000000E-01  5.000000E-01  3.750000E+01  4.117695E+01  1.700685E+07  0.000000E+00  1.000000E+00  0.000000E+00  0.000000E+00  1.024000E+03  0.000000E+00  3.398760E-17  2.977419E-01    1 
 5.000000E-01  5.000000E-01  3.850000E+01  4.113617E+01  1.699681E+07  0.000000E+00  1.000000E+00  0.000000E+00  0.000000E+00  1.024000E+03  0.000000E+00  3.399288E-17  2.979800E-01    1 
 5.000000E-01  5.000000E-01  3.950000E+01  4.109539E+01  1.698678E+07  0.000000E+00  1.000000E+00  0.000000E+00  0.000000E+00  1.024000E+03  0.000000E+00  3.399816E-17  2.982183E-01    1 
 5.000000E-01  5.000000E-01  4.050000E+01  4.105462E+01  1.697674E+07  0.000000E+00  1.000000E+00  0.000000E+00  0.000000E+00  1.024000E+03  0.000000E+00  3.400345E-17  2.984568E-01    1 
 5.000000E-01  5.000000E-01  4.150000E+01  4.101385E+01  1.696671E+07  0.000000E+00  1.000000E+00  0.000000E+00  0.000000E+00  1.024000E+03  0.000000E+00  3.400874E-17  2.986955E-01    1 
 5.000000E-01  5.000000E-01  4.250000E+01  4.097309E+01  1.695667E+07  0.000000E+00  1.000000E+00  0.000000E+00  0.000000E+00  1.024000E+03  0.000000E+00  3.401404E-17  2.989343E-01    1 
 5.000000E-01  5.000000E-01  4.350000E+01  4.093233E+01  1.694664E+07  0.000000E+00  1.000000E+00  0.000000E+00  0.000000E+00  1.024000E+03  0.000000E+00  3.401934E-17  2.991734E-01    1 
 5.000000E-01  5.000000E-01  4.450000E+01  4.089158E+01  1.693660E+07  0.000000E+00  1.000000E+00  0.000000E+00  0.000000E+00  1.024000E+03  0.000000E+00  3.402465E-17  2.994126E-01    1 
 5.000000E-01  5.000000E-01  4.550000E+01  4.085084E+01  1.692657E+07  0.000000E+00  1.000000E+00  0.000000E+00  0.000000E+00  1.024000E+03  0.000000E+00  3.402996E-17  2.996521E-01    1 
 5.000000E-01  5.000000E-01  4.650000E+01  4.081010E+01  1.691653E+07  0.000000E+00  1.000000E+00  0.000000E+00  0.000000E+00  1.024000E+03  0.000000E+00  3.403528E-17  2.998917E-01    1 
 5.000000E-01  5.000000E-01  4.750000E+01  4.076937E+01  1.690649E+07  0.000000E+00  1.000000E+00  0.000000E+00  0.000000E+00  1.024000E+03  0.000000E+00  3.404060E-17  3.001315E-01    1 
 5.000000E-01  5.000000E-01  4.850000E+01  4.072864E+01  1.689646E+07  0.000000E+00  1.000000E+00  0.000000E+00  0.000000E+00  1.024000E+03  0.000000E+00  3.404593E-17  3.003715E-01    1 
 5.000000E-01  5.000000E-01  4.950000E+01  4.068792E+01  1.688642E+07  0.000000E+00  1.000000E+00  0.000000E+00  0.000000E+00  1.024000E+03  0.000000E+00  3.405126E-17  3.006117E-01    1 
 5.000000E-01  5.000000E-01  5.050000E+01  4.064721E+01  1.687639E+07  0.000000E+00  1.000000E+00  0.000000E+00  0.000000E+00  1.024000E+03  0.000000E+00  3.405660E-17  3.008521E-01    1 
 5.000000E-01  5.000000E-01  5.150000E+01  4.060650E+01  1.686635E+07  0.000000E+00  1.000000E+00  0.000000E+00  0.000000E+00  1.024000E+03  0.000000E+00  3.406195E-17  3.010927E-01    1 
 5.000000E-01  5.000000E-01  5.250000E+01  4.056580E+01  1.685632E+07  0.000000E+00  1.000000E+00  0.000000E+00  0.000000E+00  1.024000E+03  0.000000E+00  3.406729E-17  3.013335E-01    1 
 5.000000E-01  5.000000E-01  5.350000E+01  4.052510E+01  1.684628E+07  0.000000E+00  1.000000E+00  0.000000E+00  0.000000E+00  1.024000E+03  0.000000E+00  3.407265E-17  3.015744E-01    1 
 5.000000E-01  5.000000E-01  5.450000E+01  4.048441E+01  1.683625E+07  0.000000E+00  1.000000E+00  0.000000E+00  0.000000E+00  1.024000E+03  0.000000E+00  3.407801E-17  3.018156E-01    1 
 5.000000E-01  5.000000E-01  5.550000E+01  4.044373E+01  1.682621E+07  0.000000E+00  1.000000E+00  0.000000E+00  0.000000E+00  1.024000E+03  0.000000E+00  3.408337E-17  3.020570E-01    1 
 5.000000E-01  5.000000E-01  5.650000E+01  4.040305E+01  1.681618E+07  0.000000E+00  1.000000E+00  0.000000E+00  0.000000E+00  1.024000E+03  0.000000E+00  3.408874E-17  3.022985E-01    1 
 5.000000E-01  5.000000E-01  5.750000E+01  4.036238E+01  1.680614E+07  0.000000E+00  1.000000E+00  0.000000E+00  0.000000E+00  1.024000E+03  0.000000E+00  3.409411E-17  3.025403E-01    1 
 5.000000E-01  5.000000E-01  5.850000E+01  4.032171E+01  1.679611E+07  0.000000E+00  1.000000E+00  0.000000E+00  0.000000E+00  1.024000E+03  0.000000E+00  3.409949E-17  3.027822E-01    1 
 5.000000E-01  5.000000E-01  5.950000E+01  4.028105E+01  1.678607E+07  0.000000E+00  1.000000E+00  0.000000E+00  0.000000E+00  1.024000E+03  0.000000E+00  3.410488E-17  3.030243E-01    1 
 5.000000E-01  5.000000E-01  6.050000E+01  4.024040E+01  1.677604E+07  0.000000E+00  1.000000E+00  0.000000E+00  0.000000E+00  1.024000E+03  0.000000E+00  3.411027E-17  3.032666E-01    1 
 5.000000E-01  5.000000E-01  6.150000E+01  4.019975E+01  1.676600E+07  0.000000E+00  1.000000E+00  0.000000E+00  0.000000E+00  1.024000E+03  0.000000E+00  3.411566E-17  3.035092E-01    1 
 5.000000E-01  5.000000E-01  6.250000E+01  4.015911E+01  1.675596E+07  0.000000E+00  1.000000E+00  0.000000E+00  0.000000E+00  1.024000E+03  0.000000E+00  3.412106E-17  3.037519E-01    1 
 5.000000E-01  5.000000E-01  6.350000E+01  4.011847E+01  1.674593E+07  0.000000E+00  1.000000E+00  0.000000E+00  0.000000E+00  1.024000E+03  0.000000E+00  3.412647E-17  3.039948E-01    1 
 5.000000E-01  5.000000E-01  6.450000E+01  4.007784E+01  1.673589E+07  0.000000E+00  1.000000E+00  0.000000E+00  0.000000E+00  1.024000E+03  0.000000E+00  3.413188E-17  3.042379E-01    1 
 5.000000E-01  5.000000E-01  6.550000E+01  4.003722E+01  1.672586E+07  0.000000E+00  1.000000E+00  0.000000E+00  0.000000E+00  1.024000E+03  0.000000E+00  3.413729E-17  3.044812E-01    1 
 5.000000E-01  5.000000E-01  6.650000E+01  3.999660E+01  1.671582E+07  0.000000E+00  1.000000E+00  0.000000E+00  0.000000E+00  1.024000E+03  0.000000E+00  3.414271E-17  3.047247E-01    1 
 5.000000E-01  5.000000E-01  6.750000E+01  3.995599E+01  1.670579E+07  0.000000E+00  1.000000E+00  0.000000E+00  0.000000E+00  1.024000E+03  0.000000E+00  3.414814E-17  3.049683E-01    1 
 5.000000E-01  5.000000E-01  6.850000E+01  3.991538E+01  1.669575E+07  0.000000E+00  1.000000E+00  0.000000E+00  0.000000E+00  1.024000E+03  0.000000E+00  3.415357E-17  3.052122E-01    1 
 5.000000E-01  5.000000E-01  6.950000E+01  3.987478E+01  1.668572E+07  0.000000E+00  1.000000E+00  0.000000E+00  0.000000E+00  1.024000E+03  0.000000E+00  3.415901E-17  3.054563E-01    1 
 5.000000E-01  5.000000E-01  7.050000E+01  3.983418E+01  1.667568E+07  0.000000E+00  1.000000E+00  0.000000E+00  0.000000E+00  1.024000E+03  0.000000E+00  3.416445E-17  3.057006E-01    1 
 5.000000E-01  5.000000E-01  7.150000E+01  3.979359E+01  1.666565E+07  0.000000E+00  1.000000E+00  0.000000E+00  0.000000E+00  1.024000E+03  0.000000E+00  3.416989E-17  3.059450E-01    1 
 5.000000E-01  5.000000E-01  7.250000E+01  3.975301E+01  1.665561E+07  0.000000E+00  1.000000E+00  0.000000E+00  0.000000E+00  1.024000E+03  0.000000E+00  3.417535E-17  3.061897E-01    1 
 5.000000E-01  5.000000E-01  7.350000E+01  3.971243E+01  1.664558E+07  0.000000E+00  1.000000E+00  0.000000E+00  0.000000E+00  1.024000E+03  0.000000E+00  3.418080E-17  3.064345E-01    1 
 5.000000E-01  5.000000E-01  7.450000E+01  3.967186E+01  1.663554E+07  0.000000E+00  1.000000E+00  0.000000E+00  0.000000E+00  1.024000E+03  0.000000E+00  3.418627E-17  3.066796E-01    1 
 5.000000E-01  5.000000E-01  7.550000E+01  3.963130E+01  1.662551E+07  0.000000E+00  1.000000E+00  0.000000E+00  0.000000E+00  1.024000E+03  0.000000E+00  3.419173E-17  3.069248E-01    1 
 5.000000E-01  5.000000E-01  7.650000E+01  3.959074E+01  1.661547E+07  0.000000E+00  1.000000E+00  0.000000E+00  0.000000E+00  1.024000E+03  0.000000E+00  3.419721E-17  3.071703E-01    1 
 5.000000E-01  5.000000E-01  7.750000E+01  3.955019E+01  1.660543E+07  0.000000E+00  1.000000E+00  0.000000E+00  0.000000E+00  1.024000E+03  0.000000E+00  3.420268E-17  3.074159E-01    1 
 5.000000E-01  5.000000E-01  7.850000E+01  3.950964E+01  1.659540E+07  0.000000E+00  1.000000E+00  0.000000E+00  0.000000E+00  1.024000E+03  0.000000E+00  3.420817E-17  3.076617E-01    1 
 5.000000E-01  5.000000E-01  7.950000E+01  3.946910E+01  1.658536E+07  0.000000E+00  1.000000E+00  0.000000E+00  0.000000E+00  1.024000E+03  0.000000E+00  3.421366E-17  3.079078E-01    1 
 5.000000E-01  5.000000E-01  8.050000E+01  3.942856E+01  1.657533E+07  0.000000E+00  1.000000E+00  0.000000E+00  0.000000E+00  1.024000E+03  0.000000E+00  3.421915E-17  3.081540E-01    1 
 5.000000E-01  5.000000E-01  8.150000E+01  3.938803E+01  1.656529E+07  0.000000E+00  1.000000E+00  0.000000E+00  0.000000E+00  1.024000E+03  0.000000E+00  3.422465E-17  3.084004E-01    1 
 5.000000E-01  5.000000E-01  8.250000E+01  3.934751E+01  1.655526E+07  0.000000E+00  1.000000E+00  0.000000E+00  0.000000E+00  1.024000E+03  0.000000E+00  3.423015E-17  3.086470E-01    1 
 5.000000E-01  5.000000E-01  8.350000E+01  3.930699E+01  1.654522E+07  0.000000E+00  1.000000E+00  0.000000E+00  0.000000E+00  1.024000E+03  0.000000E+00  3.423566E-17  3.088939E-01    1 
 5.000000E-01  5.000000E-01  8.450000E+01  3.926648E+01  1.653519E+07  0.000000E+00  1.000000E+00  0.000000E+00  0.000000E+00  1.024000E+03  0.000000E+00  3.424118E-17  3.091409E-01    1 
 5.000000E-01  5.000000E-01  8.550000E+01  3.922598E+01  1.652515E+07  0.000000E+00  1.000000E+00  0.000000E+00  0.000000E+00  1.024000E+03  0.000000E+00  3.424670E-17  3.093881E-01    1 
 5.000000E-01  5.000000E-01  8.650000E+01  3.918548E+01  1.651512E+07  0.000000E+00  1.000000E+00  0.000000E+00  0.000000E+00  1.024000E+03  0.000000E+00  3.425222E-17  3.096355E-01    1 
 5.000000E-01  5.000000E-01  8.750000E+01  3.914498E+01  1.650508E+07  0.000000E+00  1.000000E+00  0.000000E+00  0.000000E+00  1.024000E+03  0.000000E+00  3.425775E-17  3.098831E-01    1 
 5.000000E-01  5.000000E-01  8.850000E+01  3.910450E+01  1.649505E+07  0.000000E+00  1.000000E+00  0.000000E+00  0.000000E+00  1.024000E+03  0.000000E+00  3.426329E-17  3.101309E-01    1 
 5.000000E-01  5.000000E-01  8.950000E+01  3.906401E+01  1.648501E+07  0.000000E+00  1.000000E+00  0.000000E+00  0.000000E+00  1.024000E+03  0.000000E+00  3.426883E-17  3.103789E-01    1 
 5.000000E-01  5.000000E-01  9.050000E+01  3.902354E+01  1.647497E+07  0.000000E+00  1.000000E+00  0.000000E+00  0.000000E+00  1.024000E+03  0.000000E+00  3.427438E-17  3.106271E-01    1 
 5.000000E-01  5.000000E-01  9.150000E+01  3.898307E+01  1.646494E+07  0.000000E+00  1.000000E+00  0.000000E+00  0.000000E+00  1.024000E+03  0.000000E+00  3.427993E-17  3.108755E-01    1 
 5.000000E-01  5.000000E-01  9.250000E+01  3.894261E+01  1.645490E+07  0.000000E+00  1.000000E+00  0.000000E+00  0.000000E+00  1.024000E+03  0.000000E+00  3.428549E-17  3.111241E-01    1 
 5.000000E-01  5.000000E-01  9.350000E+01  3.890215E+01  1.644487E+07  0.000000E+00  1.000000E+00  0.000000E+00  0.000000E+00  1.024000E+03  0.000000E+00  3.429105E-17  3.113729E-01    1 
 5.000000E-01  5.000000E-01  9.450000E+01  3.886170E+01  1.643483E+07  0.000000E+00  1.000000E+00  0.000000E+00  0.000000E+00  1.024000E+03  0.000000E+00  3.429662E-17  3.116219E-01    1 
 5.000000E-01  5.000000E-01  9.550000E+01  3.882125E+01  1.642480E+07  0.000000E+00  1.000000E+00  0.000000E+00  0.000000E+00  1.024000E+03  0.000000E+00  3.430219E-17  3.118711E-01    1 
 5.000000E-01  5.000000E-01  9.650000E+01  3.878081E+01  1.641476E+07  0.000000E+00  1.000000E+00  0.000000E+00  0.000000E+00  1.024000E+03  0.000000E+00  3.430777E-17  3.121205E-01    1 
 5.000000E-01  5.000000E-01  9.750000E+01  3.874038E+01  1.640473E+07  0.000000E+00  1.000000E+00  0.000000E+00  0.000000E+00  1.024000E+03  0.000000E+00  3.431336E-17  3.123701E-01    1 
 5.000000E-01  5.000000E-01  9.850000E+01  3.869995E+01  1.639469E+07  0.000000E+00  1.000000E+00  0.000000E+00  0.000000E+00  1.024000E+03  0.000000E+00  3.431895E-17  3.126199E-01    1 
 5.000000E-01  5.000000E-01  9.950000E+01  3.865953E+01  1.638466E+07  0.000000E+00  1.000000E+00  0.000000E+00  0.000000E+00  1.024000E+03  0.000000E+00  3.432454E-17  3.128699E-01    1 
 5.000000E-01  5.000000E-01  1.005000E+02  3.861911E+01  1.637462E+07  0.000000E+00  1.000000E+00  0.000000E+00  0.000000E+00  1.024000E+03  0.000000E+00  3.433014E-17  3.131201E-01    1 
 5.000000E-01  5.000000E-01  1.015000E+02  3.857870E+01  1.636458E+07  0.000000E+00  1.000000E+00  0.000000E+00  0.000000E+00  1.024000E+03  0.000000E+00  3.433575E-17  3.133705E-01    1 
 5.000000E-01  5.000000E-01  1.025000E+02  3.853830E+01  1.635455E+07  0.000000E+00  1.000000E+00  0.000000E+00  0.000000E+00  1.024000E+03  0.000000E+00  3.434136E-17  3.136211E-01    1 
 5.000000E-01  5.000000E-01  1.035000E+02  3.849790E+01  1.634451E+07  0.000000E+00  1.000000E+00  0.000000E+00  0.000000E+00  1.024000E+03  0.000000E+00  3.434698E-17  3.138719E-01    1 
 5.000000E-01  5.000000E-01  1.045000E+02  3.845751E+01  1.633448E+07  0.000000E+00  1.000000E+00  0.000000E+00  0.000000E+00  1.024000E+03  0.000000E+00  3.435260E-17  3.141229E-01    1 
 5.000000E-01  5.000000E-01  1.055000E+02  3.841712E+01  1.632444E+07  0.000000E+00  1.000000E+00  0.000000E+00  0.000000E+00  1.024000E+03  0.000000E+00  3.435823E-17  3.143741E-01    1 
 5.000000E-01  5.000000E-01  1.065000E+02  3.837674E+01  1.631441E+07  0.000000E+00  1.000000E+00  0.000000E+00  0.000000E+00  1.024000E+03  0.000000E+00  3.436386E-17  3.146255E-01    1 
 5.000000E-01  5.000000E-01  1.075000E+02  3.833637E+01  1.630437E+07  0.000000E+00  1.000000E+00  0.000000E+00  0.000000E+00  1.024000E+03  0.000000E+00  3.436950E-17  3.148771E-01    1 
 5.000000E-01  5.000000E-01  1.085000E+02  3.829600E+01  1.629434E+07  0.000000E+00  1.000000E+00  0.000000E+00  0.000000E+00  1.024000E+03  0.000000E+00  3.437514E-17  3.151289E-01    1 
 5.000000E-01  5.000000E-01  1.095000E+02  3.825564E+01  1.628430E+07  0.000000E+00  1.000000E+00  0.000000E+00  0.000000E+00  1.024000E+03  0.000000E+00  3.438079E-17  3.153809E-01    1 
 5.000000E-01  5.000000E-01  1.105000E+02  3.821528E+01  1.627427E+07  0.000000E+00  1.000000E+00  0.000000E+00  0.000000E+00  1.024000E+03  0.000000E+00  3.438645E-17  3.156331E-01    1 
 5.000000E-01  5.000000E-01  1.115000E+02  3.817493E+01  1.626423E+07  0.000000E+00  1.000000E+00  0.000000E+00  0.000000E+00  1.024000E+03  0.000000E+00  3.439211E-17  3.158855E-01    1 
 5.000000E-01  5.000000E-01  1.125000E+02  3.813459E+01  1.625419E+07  0.000000E+00  1.000000E+00  0.000000E+00  0.000000E+00  1.024000E+03  0.000000E+00  3.439777E-17  3.161381E-01    1 
 5.000000E-01  5.000000E-01  1.135000E+02  3.809425E+01  1.624416E+07  0.000000E+00  1.000000E+00  0.000000E+00  0.000000E+00  1.024000E+03  0.000000E+00  3.440344E-17  3.163909E-01    1 
 5.000000E-01  5.000000E-01  1.145000E+02  3.805391E+01  1.623412E+07  0.000000E+00  1.000000E+00  0.000000E+00  0.000000E+00  1.024000E+03  0.000000E+00  3.440912E-17  3.166439E-01    1 
 5.000000E-01  5.000000E-01  1.155000E+02  3.801359E+01  1.622409E+07  0.000000E+00  1.000000E+00  0.000000E+00  0.000000E+00  1.024000E+03  0.000000E+00  3.441480E-17  3.168971E-01    1 
 5.000000E-01  5.000000E-01  1.165000E+02  3.797327E+01  1.621405E+07  0.000000E+00  1.000000E+00  0.000000E+00  0.000000E+00  1.024000E+03  0.000000E+00  3.442049E-17  3.171506E-01    1 
 5.000000E-01  5.000000E-01  1.175000E+02  3.793295E+01  1.620402E+07  0.000000E+00  1.000000E+00  0.000000E+00  0.000000E+00  1.024000E+03  0.000000E+00  3.442618E-17  3.174042E-01    1 
 5.000000E-01  5.000000E-01  1.185000E+02  3.789264E+01  1.619398E+07  0.000000E+00  1.000000E+00  0.000000E+00  0.000000E+00  1.024000E+03  0.000000E+00  3.443188E-17  3.176580E-01    1 
 5.000000E-01  5.000000E-01  1.195000E+02  3.785234E+01  1.618395E+07  0.000000E+00  1.000000E+00  0.000000E+00  0.000000E+00  1.024000E+03  0.000000E+00  3.443758E-17  3.179120E-01    1 
 5.000000E-01  5.000000E-01  1.205000E+02  3.781205E+01  1.617391E+07  0.000000E+00  1.000000E+00  0.000000E+00  0.000000E+00  1.024000E+03  0.000000E+00  3.444329E-17  3.181663E-01    1 
 5.000000E-01  5.000000E-01  1.215000E+02  3.777175E+01  1.616388E+07  0.000000E+00  1.000000E+00  0.000000E+00  0.000000E+00  1.024000E+03  0.000000E+00  3.444901E-17  3.184207E-01    1 
 5.000000E-01  5.000000E-01  1.225000E+02  3.773147E+01  1.615384E+07  0.000000E+00  1.000000E+00  0.000000E+00  0.000000E+00  1.024000E+03  0.000000E+00  3.445473E-17  3.186753E-01    1 
 5.000000E-01  5.000000E-01  1.235000E+02  3.769119E+01  1.614380E+07  0.000000E+00  1.000000E+00  0.000000E+00  0.000000E+00  1.024000E+03  0.000000E+00  3.446046E-17  3.189302E-01    1 
 5.000000E-01  5.000000E-01  1.245000E+02  3.765092E+01  1.613377E+07  0.000000E+00  1.000000E+00  0.000000E+00  0.000000E+00  1.024000E+03  0.000000E+00  3.446619E-17  3.191852E-01    1 
 5.000000E-01  5.000000E-01  1.255000E+02  3.761065E+01  1.612373E+07  0.000000E+00  1.000000E+00  0.000000E+00  0.000000E+00  1.024000E+03  0.000000E+00  3.447192E-17  3.194405E-01    1 
 5.000000E-01  5.000000E-01  1.265000E+02  3.757039E+01  1.611370E+07  0.000000E+00  1.000000E+00  0.000000E+00  0.000000E+00  1.024000E+03  0.000000E+00  3.447767E-17  3.196959E-01    1 
 5.000000E-01  5.000000E-01  1.275000E+02  3.753014E+01  1.610366E+07  0.000000E+00  1.000000E+00  0.000000E+00  0.000000E+00  1.024000E+03  0.000000E+00  3.448342E-17  3.199516E-01    1 
 5.000000E-01  5.000000E-01  1.285000E+02  3.748989E+01  1.609363E+07  0.000000E+00  1.000000E+00  0.000000E+00  0.000000E+00  1.024000E+03  0.000000E+00  3.448917E-17  3.202074E-01    1 
 5.000000E-01  5.000000E-01  1.295000E+02  3.744964E+01  1.608359E+07  0.000000E+00  1.000000E+00  0.000000E+00  0.000000E+00  1.024000E+03  0.000000E+00  3.449493E-17  3.204635E-01    1 
 5.000000E-01  5.000000E-01  1.305000E+02  3.740941E+01  1.607356E+07  0.000000E+00  1.000000E+00  0.000000E+00  0.000000E+00  1.024000E+03  0.000000E+00  3.450069E-17  3.207197E-01    1 
 5.000000E-01  5.000000E-01  1.315000E+02  3.736918E+01  1.606352E+07  0.000000E+00  1.000000E+00  0.000000E+00  0.000000E+00  1.024000E+03  0.000000E+00  3.450646E-17  3.209762E-01    1 
 5.000000E-01  5.000000E-01  1.325000E+02  3.732895E+01  1.605348E+07  0.000000E+00  1.000000E+00  0.000000E+00  0.000000E+00  1.024000E+03  0.000000E+00  3.451224E-17  3.212329E-01    1 
 5.000000E-01  5.000000E-01  1.335000E+02  3.728873E+01  1.604345E+07  0.000000E+00  1.000000E+00  0.000000E+00  0.000000E+00  1.024000E+03  0.000000E+00  3.451802E-17  3.214898E-01    1 
 5.000000E-01  5.000000E-01  1.345000E+02  3.724852E+01  1.603341E+07  0.000000E+00  1.000000E+00  0.000000E+00  0.000000E+00  1.024000E+03  0.000000E+00  3.452381E-17  3.217469E-01    1 
 5.000000E-01  5.000000E-01  1.355000E+02  3.720831E+01  1.602338E+07  0.000000E+00  1.000000E+00  0.000000E+00  0.000000E+00  1.024000E+03  0.000000E+00  3.452960E-17  3.220042E-01    1 
 5.000000E-01  5.000000E-01  1.365000E+02  3.716811E+01  1.601334E+07  0.000000E+00  1.000000E+00  0.000000E+00  0.000000E+00  1.024000E+03  0.000000E+00  3.453540E-17  3.222617E-01    1 
 5.000000E-01  5.000000E-01  1.375000E+02  3.712791E+01  1.600331E+07  0.000000E+00  1.000000E+00  0.000000E+00  0.000000E+00  1.024000E+03  0.000000E+00  3.454121E-17  3.225194E-01    1 
 5.000000E-01  5.000000E-01  1.385000E+02  3.708772E+01  1.599327E+07  0.000000E+00  1.000000E+00  0.000000E+00  0.000000E+00  1.024000E+03  0.000000E+00  3.454701E-17  3.227773E-01    1 
 5.000000E-01  5.000000E-01  1.395000E+02  3.704754E+01  1.598324E+07  1.598330E+07  9.998918E-01  1.081931E-04  0.000000E+00  1.024000E+03  1.540294E+02  3.455283E-17  3.230354E-01    1 
 5.000000E-01  5.000000E-01  1.405000E+02  3.700736E+01  1.597320E+07  1.597331E+07  9.998267E-01  1.733220E-04  0.000000E+00  1.024000E+03  1.539638E+02  3.455865E-17  3.232937E-01    1 
 5.000000E-01  5.000000E-01  1.415000E+02  3.696719E+01  1.596316E+07  1.596330E+07  9.997691E-01  2.309230E-04  0.000000E+00  1.024000E+03  1.538982E+02  3.456448E-17  3.235523E-01    1 
 5.000000E-01  5.000000E-01  1.425000E+02  3.692702E+01  1.595313E+07  1.595330E+07  9.997156E-01  2.844006E-04  0.000000E+00  1.024000E+03  1.538325E+02  3.457031E-17  3.238110E-01    1 
 5.000000E-01  5.000000E-01  1.435000E+02  3.688686E+01  1.594309E+07  1.594330E+07  9.996621E-01  3.378882E-04  0.000000E+00  1.024000E+03  1.537668E+02  3.457615E-17  3.240699E-01    1 
 5.000000E-01  5.000000E-01  1.445000E+02  3.684670E+01  1.593306E+07  1.593329E+07  9.996082E-01  3.918315E-04  0.000000E+00  1.024000E+03  1.537011E+02  3.458199E-17  3.243291E-01    1 
 5.000000E-01  5.000000E-01  1.455000E+02  3.680655E+01  1.592302E+07  1.592329E+07  9.995542E-01  4.458111E-04  0.000000E+00  1.024000E+03  1.536353E+02  3.458784E-17  3.245885E-01    1 
 5.000000E-01  5.000000E-01  1.465000E+02  3.676641E+01  1.591299E+07  1.591329E+07  9.995005E-01  4.995052E-04  0.000000E+00  1.024000E+03  1.535695E+02  3.459370E-17  3.248480E-01    1 
 5.000000E-01  5.000000E-01  1.475000E+02  3.672627E+01  1.590295E+07  1.590328E+07  9.994469E-01  5.530600E-04  0.000000E+00  1.024000E+03  1.535037E+02  3.459956E-17  3.251078E-01    1 
 5.000000E-01  5.000000E-01  1.485000E+02  3.668614E+01  1.589291E+07  1.589328E+07  9.993938E-01  6.061870E-04  0.000000E+00  1.024000E+03  1.534378E+02  3.460542E-17  3.253678E-01    1 
 5.000000E-01  5.000000E-01  1.495000E+02  3.664601E+01  1.588288E+07  1.588328E+07  9.993408E-01  6.591721E-04  0.000000E+00  1.024000E+03  1.533719E+02  3.461129E-17  3.256280E-01    1 
 5.000000E-01  5.000000E-01  1.505000E+02  3.660589E+01  1.587284E+07  1.587327E+07  9.992874E-01  7.126120E-04  0.000000E+00  1.024000E+03  1.533060E+02  3.461717E-17  3.258884E-01    1 
 5.000000E-01  5.000000E-01  1.515000E+02  3.656577E+01  1.586281E+07  1.586327E+07  9.992332E-01  7.668480E-04  0.000000E+00  1.024000E+03  1.532401E+02  3.462306E-17  3.261490E-01    1 
 5.000000E-01  5.000000E-01  1.525000E+02  3.652566E+01  1.585277E+07  1.585327E+07  9.991781E-01  8.219386E-04  0.000000E+00  1.024000E+03  1.531741E+02  3.462894E-17  3.264098E-01    1 
 5.000000E-01  5.000000E-01  1.535000E+02  3.648555E+01  1.584273E+07  1.584326E+07  9.991223E-01  8.776578E-04  0.000000E+00  1.024000E+03  1.531081E+02  3.463484E-17  3.266708E-01    1 
 5.000000E-01  5.000000E-01  1.545000E+02  3.644545E+01  1.583270E+07  1.583326E+07  9.990664E-01  9.335553E-04  0.000000E+00  1.024000E+03  1.530421E+02  3.464074E-17  3.269320E-01    1 
 5.000000E-01  5.000000E-01  1.555000E+02  3.640536E+01  1.582266E+07  1.582326E+07  9.990109E-01  9.890890E-04  0.000000E+00  1.024000E+03  1.529760E+02  3.464665E-17  3.271935E-01    1 
 5.000000E-01  5.000000E-01  1.565000E+02  3.636527E+01  1.581263E+07  1.581325E+07  9.989562E-01  1.043784E-03  0.000000E+00  1.024000E+03  1.529099E+02  3.465256E-17  3.274551E-01    1 