TITLE = "  4.00000E+04 [y]"
VARIABLES="X [m]","Y [m]","Z [m]","Temperature [C]","Liquid Pressure [Pa]","Gas Pressure [Pa]","Liquid Saturation","Gas Saturation","Hydrate Saturation","Liquid Density [kg/m^3]","Gas Density [kg/m^3]","Permeability X [m^2]","Porosity","Material ID"
ZONE T="4.00000E+04", STRANDID=1, SOLUTIONTIME=4.00000E+04, I=1, J=1, K=1000, DATAPACKING=POINT
 5.000000E-01  5.000000E-01  5.000000E-01  4.272891E+01  1.750306E+07  0.000000E+00  1.000000E+00  0.000000E+00  0.000000E+00  1.024000E+03  0.000000E+00  3.379583E-17  2.890648E-01    1 
 5.000000E-01  5.000000E-01  1.500000E+00  4.268790E+01  1.749302E+07  0.000000E+00  1.000000E+00  0.000000E+00  0.000000E+00  1.024000E+03  0.000000E+00  3.380093E-17  2.892959E-01    1 
 5.000000E-01  5.000000E-01  2.500000E+00  4.264691E+01  1.748299E+07  0.000000E+00  1.000000E+00  0.000000E+00  0.000000E+00  1.024000E+03  0.000000E+00  3.380603E-17  2.895273E-01    1 
 5.000000E-01  5.000000E-01  3.500000E+00  4.260591E+01  1.747295E+07  0.000000E+00  1.000000E+00  0.000000E+00  0.000000E+00  1.024000E+03  0.000000E+00  3.381113E-17  2.897588E-01    1 
 5.000000E-01  5.000000E-01  4.500000E+00  4.256492E+01  1.746292E+07  0.000000E+00  1.000000E+00  0.000000E+00  0.000000E+00  1.024000E+03  0.000000E+00  3.381624E-17  2.899905E-01    1 
 5.000000E-01  5.000000E-01  5.500000E+00  4.252394E+01  1.745288E+07  0.000000E+00  1.000000E+00  0.000000E+00  0.000000E+00  1.024000E+03  0.000000E+00  3.382135E-17  2.902224E-01    1 
 5.000000E-01  5.000000E-01  6.500000E+00  4.248296E+01  1.744285E+07  0.000000E+00  1.000000E+00  0.000000E+00  0.000000E+00  1.024000E+03  0.000000E+00  3.382647E-17  2.904545E-01    1 
 5.000000E-01  5.000000E-01  7.500000E+00  4.244199E+01  1.743281E+07  0.000000E+00  1.000000E+00  0.000000E+00  0.000000E+00  1.024000E+03  0.000000E+00  3.383160E-17  2.906868E-01    1 
 5.000000E-01  5.000000E-01  8.500000E+00  4.240102E+01  1.742278E+07  0.000000E+00  1.000000E+00  0.000000E+00  0.000000E+00  1.024000E+03  0.000000E+00  3.383673E-17  2.909192E-01    1 
 5.000000E-01  5.000000E-01  9.500000E+00  4.236005E+01  1.741274E+07  0.000000E+00  1.000000E+00  0.000000E+00  0.000000E+00  1.024000E+03  0.000000E+00  3.384186E-17  2.911519E-01    1 
 5.000000E-01  5.000000E-01  1.050000E+01  4.231909E+01  1.740271E+07  0.000000E+00  1.000000E+00  0.000000E+00  0.000000E+00  1.024000E+03  0.000000E+00  3.384700E-17  2.913847E-01    1 
 5.000000E-01  5.000000E-01  1.150000E+01  4.227814E+01  1.739267E+07  0.000000E+00  1.000000E+00  0.000000E+00  0.000000E+00  1.024000E+03  0.000000E+00  3.385214E-17  2.916177E-01    1 
 5.000000E-01  5.000000E-01  1.250000E+01  4.223719E+01  1.738264E+07  0.000000E+00  1.000000E+00  0.000000E+00  0.000000E+00  1.024000E+03  0.000000E+00  3.385729E-17  2.918509E-01    1 
 5.000000E-01  5.000000E-01  1.350000E+01  4.219625E+01  1.737260E+07  0.000000E+00  1.000000E+00  0.000000E+00  0.000000E+00  1.024000E+03  0.000000E+00  3.386244E-17  2.920843E-01    1 
 5.000000E-01  5.000000E-01  1.450000E+01  4.215531E+01  1.736256E+07  0.000000E+00  1.000000E+00  0.000000E+00  0.000000E+00  1.024000E+03  0.000000E+00  3.386760E-17  2.923179E-01    1 
 5.000000E-01  5.000000E-01  1.550000E+01  4.211437E+01  1.735253E+07  0.000000E+00  1.000000E+00  0.000000E+00  0.000000E+00  1.024000E+03  0.000000E+00  3.387276E-17  2.925516E-01    1 
 5.000000E-01  5.000000E-01  1.650000E+01  4.207344E+01  1.734249E+07  0.000000E+00  1.000000E+00  0.000000E+00  0.000000E+00  1.024000E+03  0.000000E+00  3.387793E-17  2.927856E-01    1 
 5.000000E-01  5.000000E-01  1.750000E+01  4.203252E+01  1.733246E+07  0.000000E+00  1.000000E+00  0.000000E+00  0.000000E+00  1.024000E+03  0.000000E+00  3.388310E-17  2.930197E-01    1 
 5.000000E-01  5.000000E-01  1.850000E+01  4.199160E+01  1.732242E+07  0.000000E+00  1.000000E+00  0.000000E+00  0.000000E+00  1.024000E+03  0.000000E+00  3.388828E-17  2.932541E-01    1 
 5.000000E-01  5.000000E-01  1.950000E+01  4.195069E+01  1.731239E+07  0.000000E+00  1.000000E+00  0.000000E+00  0.000000E+00  1.024000E+03  0.000000E+00  3.389346E-17  2.934886E-01    1 
 5.000000E-01  5.000000E-01  2.050000E+01  4.190978E+01  1.730235E+07  0.000000E+00  1.000000E+00  0.000000E+00  0.000000E+00  1.024000E+03  0.000000E+00  3.389865E-17  2.937233E-01    1 
 5.000000E-01  5.000000E-01  2.150000E+01  4.186888E+01  1.729232E+07  0.000000E+00  1.000000E+00  0.000000E+00  0.000000E+00  1.024000E+03  0.000000E+00  3.390384E-17  2.939581E-01    1 
 5.000000E-01  5.000000E-01  2.250000E+01  4.182798E+01  1.728228E+07  0.000000E+00  1.000000E+00  0.000000E+00  0.000000E+00  1.024000E+03  0.000000E+00  3.390904E-17  2.941932E-01    1 
 5.000000E-01  5.000000E-01  2.350000E+01  4.178708E+01  1.727225E+07  0.000000E+00  1.000000E+00  0.000000E+00  0.000000E+00  1.024000E+03  0.000000E+00  3.391424E-17  2.944285E-01    1 
 5.000000E-01  5.000000E-01  2.450000E+01  4.174619E+01  1.726221E+07  0.000000E+00  1.000000E+00  0.000000E+00  0.000000E+00  1.024000E+03  0.000000E+00  3.391945E-17  2.946639E-01    1 
 5.000000E-01  5.000000E-01  2.550000E+01  4.170531E+01  1.725218E+07  0.000000E+00  1.000000E+00  0.000000E+00  0.000000E+00  1.024000E+03  0.000000E+00  3.392466E-17  2.948996E-01    1 
 5.000000E-01  5.000000E-01  2.650000E+01  4.166443E+01  1.724214E+07  0.000000E+00  1.000000E+00  0.000000E+00  0.000000E+00  1.024000E+03  0.000000E+00  3.392988E-17  2.951354E-01    1 
 5.000000E-01  5.000000E-01  2.750000E+01  4.162356E+01  1.723211E+07  0.000000E+00  1.000000E+00  0.000000E+00  0.000000E+00  1.024000E+03  0.000000E+00  3.393510E-17  2.953714E-01    1 
 5.000000E-01  5.000000E-01  2.850000E+01  4.158269E+01  1.722207E+07  0.000000E+00  1.000000E+00  0.000000E+00  0.000000E+00  1.024000E+03  0.000000E+00  3.394033E-17  2.956076E-01    1 
 5.000000E-01  5.000000E-01  2.950000E+01  4.154182E+01  1.721204E+07  0.000000E+00  1.000000E+00  0.000000E+00  0.000000E+00  1.024000E+03  0.000000E+00  3.394556E-17  2.958440E-01    1 
 5.000000E-01  5.000000E-01  3.050000E+01  4.150097E+01  1.720200E+07  0.000000E+00  1.000000E+00  0.000000E+00  0.000000E+00  1.024000E+03  0.000000E+00  3.395080E-17  2.960806E-01    1 
 5.000000E-01  5.000000E-01  3.150000E+01  4.146011E+01  1.719197E+07  0.000000E+00  1.000000E+00  0.000000E+00  0.000000E+00  1.024000E+03  0.000000E+00  3.395604E-17  2.963173E-01    1 
 5.000000E-01  5.000000E-01  3.250000E+01  4.141926E+01  1.718193E+07  0.000000E+00  1.000000E+00  0.000000E+00  0.000000E+00  1.024000E+03  0.000000E+00  3.396129E-17  2.965543E-01    1 
 5.000000E-01  5.000000E-01  3.350000E+01  4.137842E+01  1.717190E+07  0.000000E+00  1.000000E+00  0.000000E+00  0.000000E+00  1.024000E+03  0.000000E+00  3.396654E-17  2.967915E-01    1 
 5.000000E-01  5.000000E-01  3.450000E+01  4.133758E+01  1.716186E+07  0.000000E+00  1.000000E+00  0.000000E+00  0.000000E+00  1.024000E+03  0.000000E+00  3.397180E-17  2.970288E-01    1 
 5.000000E-01  5.000000E-01  3.550000E+01  4.129675E+01  1.715182E+07  0.000000E+00  1.000000E+00  0.000000E+00  0.000000E+00  1.024000E+03  0.000000E+00  3.397706E-17  2.972663E-01    1 
 5.000000E-01  5.000000E-01  3.650000E+01  4.125592E+01  1.714179E+07  0.000000E+00  1.000000E+00  0.000000E+00  0.000000E+00  1.024000E+03  0.000000E+00  3.398233E-17  2.975040E-01    1 
 5.000000E-01  5.000000E-01  3.750000E+01  4.121510E+01  1.713175E+07  0.000000E+00  1.000000E+00  0.000000E+00  0.000000E+00  1.024000E+03  0.000000E+00  3.398760E-17  2.977419E-01    1 
 5.000000E-01  5.000000E-01  3.850000E+01  4.117428E+01  1.712172E+07  0.000000E+00  1.000000E+00  0.000000E+00  0.000000E+00  1.024000E+03  0.000000E+00  3.399288E-17  2.979800E-01    1 
 5.000000E-01  5.000000E-01  3.950000E+01  4.113347E+01  1.711168E+07  0.000000E+00  1.000000E+00  0.000000E+00  0.000000E+00  1.024000E+03  0.000000E+00  3.399816E-17  2.982183E-01    1 
 5.000000E-01  5.000000E-01  4.050000E+01  4.109266E+01  1.710165E+07  0.000000E+00  1.000000E+00  0.000000E+00  0.000000E+00  1.024000E+03  0.000000E+00  3.400345E-17  2.984568E-01    1 
 5.000000E-01  5.000000E-01  4.150000E+01  4.105186E+01  1.709161E+07  0.000000E+00  1.000000E+00  0.000000E+00  0.000000E+00  1.024000E+03  0.000000E+00  3.400874E-17  2.986955E-01    1 
 5.000000E-01  5.000000E-01  4.250000E+01  4.101106E+01  1.708158E+07  0.000000E+00  1.000000E+00  0.000000E+00  0.000000E+00  1.024000E+03  0.000000E+00  3.401404E-17  2.989343E-01    1 
 5.000000E-01  5.000000E-01  4.350000E+01  4.097027E+01  1.707154E+07  0.000000E+00  1.000000E+00  0.000000E+00  0.000000E+00  1.024000E+03  0.000000E+00  3.401934E-17  2.991734E-01    1 
 5.000000E-01  5.000000E-01  4.450000E+01  4.092948E+01  1.706151E+07  0.000000E+00  1.000000E+00  0.000000E+00  0.000000E+00  1.024000E+03  0.000000E+00  3.402465E-17  2.994126E-01    1 
 5.000000E-01  5.000000E-01  4.550000E+01  4.088869E+01  1.705147E+07  0.000000E+00  1.000000E+00  0.000000E+00  0.000000E+00  1.024000E+03  0.000000E+00  3.402996E-17  2.996521E-01    1 
 5.000000E-01  5.000000E-01  4.650000E+01  4.084792E+01  1.704144E+07  0.000000E+00  1.000000E+00  0.000000E+00  0.000000E+00  1.024000E+03  0.000000E+00  3.403528E-17  2.998917E-01    1 
 5.000000E-01  5.000000E-01  4.750000E+01  4.080715E+01  1.703140E+07  0.000000E+00  1.000000E+00  0.000000E+00  0.000000E+00  1.024000E+03  0.000000E+00  3.404060E-17  3.001315E-01    1 
 5.000000E-01  5.000000E-01  4.850000E+01  4.076638E+01  1.702137E+07  0.000000E+00  1.000000E+00  0.000000E+00  0.000000E+00  1.024000E+03  0.000000E+00  3.404593E-17  3.003715E-01    1 
 5.000000E-01  5.000000E-01  4.950000E+01  4.072562E+01  1.701133E+07  0.000000E+00  1.000000E+00  0.000000E+00  0.000000E+00  1.024000E+03  0.000000E+00  3.405126E-17  3.006117E-01    1 
 5.000000E-01  5.000000E-01  5.050000E+01  4.068486E+01  1.700130E+07  0.000000E+00  1.000000E+00  0.000000E+00  0.000000E+00  1.024000E+03  0.000000E+00  3.405660E-17  3.008521E-01    1 
 5.000000E-01  5.000000E-01  5.150000E+01  4.064411E+01  1.699126E+07  0.000000E+00  1.000000E+00  0.000000E+00  0.000000E+00  1.024000E+03  0.000000E+00  3.406195E-17  3.010927E-01    1 
 5.000000E-01  5.000000E-01  5.250000E+01  4.060336E+01  1.698122E+07  0.000000E+00  1.000000E+00  0.000000E+00  0.000000E+00  1.024000E+03  0.000000E+00  3.406729E-17  3.013335E-01    1 
 5.000000E-01  5.000000E-01  5.350000E+01  4.056262E+01  1.697119E+07  0.000000E+00  1.000000E+00  0.000000E+00  0.000000E+00  1.024000E+03  0.000000E+00  3.407265E-17  3.015744E-01    1 
 5.000000E-01  5.000000E-01  5.450000E+01  4.052188E+01  1.696115E+07  0.000000E+00  1.000000E+00  0.000000E+00  0.000000E+00  1.024000E+03  0.000000E+00  3.407801E-17  3.018156E-01    1 
 5.000000E-01  5.000000E-01  5.550000E+01  4.048115E+01  1.695112E+07  0.000000E+00  1.000000E+00  0.000000E+00  0.000000E+00  1.024000E+03  0.000000E+00  3.408337E-17  3.020570E-01    1 
 5.000000E-01  5.000000E-01  5.650000E+01  4.044042E+01  1.694108E+07  0.000000E+00  1.000000E+00  0.000000E+00  0.000000E+00  1.024000E+03  0.000000E+00  3.408874E-17  3.022985E-01    1 
 5.000000E-01  5.000000E-01  5.750000E+01  4.039970E+01  1.693105E+07  0.000000E+00  1.000000E+00  0.000000E+00  0.000000E+00  1.024000E+03  0.000000E+00  3.409411E-17  3.025403E-01    1 
 5.000000E-01  5.000000E-01  5.850000E+01  4.035898E+01  1.692101E+07  0.000000E+00  1.000000E+00  0.000000E+00  0.000000E+00  1.024000E+03  0.000000E+00  3.409949E-17  3.027822E-01    1 
 5.000000E-01  5.000000E-01  5.950000E+01  4.031827E+01  1.691098E+07  0.000000E+00  1.000000E+00  0.000000E+00  0.000000E+00  1.024000E+03  0.000000E+00  3.410488E-17  3.030243E-01    1 
 5.000000E-01  5.000000E-01  6.050000E+01  4.027757E+01  1.690094E+07  0.000000E+00  1.000000E+00  0.000000E+00  0.000000E+00  1.024000E+03  0.000000E+00  3.411027E-17  3.032666E-01    1 
 5.000000E-01  5.000000E-01  6.150000E+01  4.023687E+01  1.689091E+07  0.000000E+00  1.000000E+00  0.000000E+00  0.000000E+00  1.024000E+03  0.000000E+00  3.411566E-17  3.035092E-01    1 
 5.000000E-01  5.000000E-01  6.250000E+01  4.019617E+01  1.688087E+07  0.000000E+00  1.000000E+00  0.000000E+00  0.000000E+00  1.024000E+03  0.000000E+00  3.412106E-17  3.037519E-01    1 
 5.000000E-01  5.000000E-01  6.350000E+01  4.015548E+01  1.687084E+07  0.000000E+00  1.000000E+00  0.000000E+00  0.000000E+00  1.024000E+03  0.000000E+00  3.412647E-17  3.039948E-01    1 
 5.000000E-01  5.000000E-01  6.450000E+01  4.011479E+01  1.686080E+07  0.000000E+00  1.000000E+00  0.000000E+00  0.000000E+00  1.024000E+03  0.000000E+00  3.413188E-17  3.042379E-01    1 
 5.000000E-01  5.000000E-01  6.550000E+01  4.007411E+01  1.685077E+07  0.000000E+00  1.000000E+00  0.000000E+00  0.000000E+00  1.024000E+03  0.000000E+00  3.413729E-17  3.044812E-01    1 
 5.000000E-01  5.000000E-01  6.650000E+01  4.003344E+01  1.684073E+07  0.000000E+00  1.000000E+00  0.000000E+00  0.000000E+00  1.024000E+03  0.000000E+00  3.414271E-17  3.047247E-01    1 
 5.000000E-01  5.000000E-01  6.750000E+01  3.999277E+01  1.683069E+07  0.000000E+00  1.000000E+00  0.000000E+00  0.000000E+00  1.024000E+03  0.000000E+00  3.414814E-17  3.049683E-01    1 
 5.000000E-01  5.000000E-01  6.850000E+01  3.995210E+01  1.682066E+07  0.000000E+00  1.000000E+00  0.000000E+00  0.000000E+00  1.024000E+03  0.000000E+00  3.415357E-17  3.052122E-01    1 
 5.000000E-01  5.000000E-01  6.950000E+01  3.991144E+01  1.681062E+07  0.000000E+00  1.000000E+00  0.000000E+00  0.000000E+00  1.024000E+03  0.000000E+00  3.415901E-17  3.054563E-01    1 
 5.000000E-01  5.000000E-01  7.050000E+01  3.987079E+01  1.680059E+07  0.000000E+00  1.000000E+00  0.000000E+00  0.000000E+00  1.024000E+03  0.000000E+00  3.416445E-17  3.057006E-01    1 
 5.000000E-01  5.000000E-01  7.150000E+01  3.983014E+01  1.679055E+07  0.000000E+00  1.000000E+00  0.000000E+00  0.000000E+00  1.024000E+03  0.000000E+00  3.416989E-17  3.059450E-01    1 
 5.000000E-01  5.000000E-01  7.250000E+01  3.978949E+01  1.678052E+07  0.000000E+00  1.000000E+00  0.000000E+00  0.000000E+00  1.024000E+03  0.000000E+00  3.417535E-17  3.061897E-01    1 
 5.000000E-01  5.000000E-01  7.350000E+01  3.974886E+01  1.677048E+07  0.000000E+00  1.000000E+00  0.000000E+00  0.000000E+00  1.024000E+03  0.000000E+00  3.418080E-17  3.064345E-01    1 
 5.000000E-01  5.000000E-01  7.450000E+01  3.970822E+01  1.676045E+07  0.000000E+00  1.000000E+00  0.000000E+00  0.000000E+00  1.024000E+03  0.000000E+00  3.418627E-17  3.066796E-01    1 
 5.000000E-01  5.000000E-01  7.550000E+01  3.966759E+01  1.675041E+07  0.000000E+00  1.000000E+00  0.000000E+00  0.000000E+00  1.024000E+03  0.000000E+00  3.419173E-17  3.069248E-01    1 
 5.000000E-01  5.000000E-01  7.650000E+01  3.962697E+01  1.674038E+07  0.000000E+00  1.000000E+00  0.000000E+00  0.000000E+00  1.024000E+03  0.000000E+00  3.419721E-17  3.071703E-01    1 
 5.000000E-01  5.000000E-01  7.750000E+01  3.958635E+01  1.673034E+07  0.000000E+00  1.000000E+00  0.000000E+00  0.000000E+00  1.024000E+03  0.000000E+00  3.420268E-17  3.074159E-01    1 
 5.000000E-01  5.000000E-01  7.850000E+01  3.954574E+01  1.672031E+07  0.000000E+00  1.000000E+00  0.000000E+00  0.000000E+00  1.024000E+03  0.000000E+00  3.420817E-17  3.076617E-01    1 
 5.000000E-01  5.000000E-01  7.950000E+01  3.950513E+01  1.671027E+07  0.000000E+00  1.000000E+00  0.000000E+00  0.000000E+00  1.024000E+03  0.000000E+00  3.421366E-17  3.079078E-01    1 
 5.000000E-01  5.000000E-01  8.050000E+01  3.946452E+01  1.670023E+07  0.000000E+00  1.000000E+00  0.000000E+00  0.000000E+00  1.024000E+03  0.000000E+00  3.421915E-17  3.081540E-01    1 
 5.000000E-01  5.000000E-01  8.150000E+01  3.942393E+01  1.669020E+07  0.000000E+00  1.000000E+00  0.000000E+00  0.000000E+00  1.024000E+03  0.000000E+00  3.422465E-17  3.084004E-01    1 
 5.000000E-01  5.000000E-01  8.250000E+01  3.938333E+01  1.668016E+07  0.000000E+00  1.000000E+00  0.000000E+00  0.000000E+00  1.024000E+03  0.000000E+00  3.423015E-17  3.086470E-01    1 
 5.000000E-01  5.000000E-01  8.350000E+01  3.934275E+01  1.667013E+07  0.000000E+00  1.000000E+00  0.000000E+00  0.000000E+00  1.024000E+03  0.000000E+00  3.423566E-17  3.088939E-01    1 
 5.000000E-01  5.000000E-01  8.450000E+01  3.930216E+01  1.666009E+07  0.000000E+00  1.000000E+00  0.000000E+00  0.000000E+00  1.024000E+03  0.000000E+00  3.424118E-17  3.091409E-01    1 
 5.000000E-01  5.000000E-01  8.550000E+01  3.926159E+01  1.665006E+07  0.000000E+00  1.000000E+00  0.000000E+00  0.000000E+00  1.024000E+03  0.000000E+00  3.424670E-17  3.093881E-01    1 
 5.000000E-01  5.000000E-01  8.650000E+01  3.922101E+01  1.664002E+07  0.000000E+00  1.000000E+00  0.000000E+00  0.000000E+00  1.024000E+03  0.000000E+00  3.425222E-17  3.096355E-01    1 
 5.000000E-01  5.000000E-01  8.750000E+01  3.918045E+01  1.662999E+07  0.000000E+00  1.000000E+00  0.000000E+00  0.000000E+00  1.024000E+03  0.000000E+00  3.425775E-17  3.098831E-01    1 
 5.000000E-01  5.000000E-01  8.850000E+01  3.913988E+01  1.661995E+07  0.000000E+00  1.000000E+00  0.000000E+00  0.000000E+00  1.024000E+03  0.000000E+00  3.426329E-17  3.101309E-01    1 
 5.000000E-01  5.000000E-01  8.950000E+01  3.909933E+01  1.660992E+07  0.000000E+00  1.000000E+00  0.000000E+00  0.000000E+00  1.024000E+03  0.000000E+00  3.426883E-17  3.103789E-01    1 
 5.000000E-01  5.000000E-01  9.050000E+01  3.905878E+01  1.659988E+07  0.000000E+00  1.000000E+00  0.000000E+00  0.000000E+00  1.024000E+03  0.000000E+00  3.427438E-17  3.106271E-01    1 
 5.000000E-01  5.000000E-01  9.150000E+01  3.901823E+01  1.658985E+07  0.000000E+00  1.000000E+00  0.000000E+00  0.000000E+00  1.024000E+03  0.000000E+00  3.427993E-17  3.108755E-01    1 
 5.000000E-01  5.000000E-01  9.250000E+01  3.897769E+01  1.657981E+07  0.000000E+00  1.000000E+00  0.000000E+00  0.000000E+00  1.024000E+03  0.000000E+00  3.428549E-17  3.111241E-01    1 
 5.000000E-01  5.000000E-01  9.350000E+01  3.893715E+01  1.656977E+07  0.000000E+00  1.000000E+00  0.000000E+00  0.000000E+00  1.024000E+03  0.000000E+00  3.429105E-17  3.113729E-01    1 
 5.000000E-01  5.000000E-01  9.450000E+01  3.889662E+01  1.655974E+07  0.000000E+00  1.000000E+00  0.000000E+00  0.000000E+00  1.024000E+03  0.000000E+00  3.429662E-17  3.116219E-01    1 
 5.000000E-01  5.000000E-01  9.550000E+01  3.885610E+01  1.654970E+07  0.000000E+00  1.000000E+00  0.000000E+00  0.000000E+00  1.024000E+03  0.000000E+00  3.430219E-17  3.118711E-01    1 
 5.000000E-01  5.000000E-01  9.650000E+01  3.881558E+01  1.653967E+07  0.000000E+00  1.000000E+00  0.000000E+00  0.000000E+00  1.024000E+03  0.000000E+00  3.430777E-17  3.121205E-01    1 
 5.000000E-01  5.000000E-01  9.750000E+01  3.877506E+01  1.652963E+07  0.000000E+00  1.000000E+00  0.000000E+00  0.000000E+00  1.024000E+03  0.000000E+00  3.431336E-17  3.123701E-01    1 
 5.000000E-01  5.000000E-01  9.850000E+01  3.873455E+01  1.651960E+07  0.000000E+00  1.000000E+00  0.000000E+00  0.000000E+00  1.024000E+03  0.000000E+00  3.431895E-17  3.126199E-01    1 
 5.000000E-01  5.000000E-01  9.950000E+01  3.869405E+01  1.650956E+07  0.000000E+00  1.000000E+00  0.000000E+00  0.000000E+00  1.024000E+03  0.000000E+00  3.432454E-17  3.128699E-01    1 
 5.000000E-01  5.000000E-01  1.005000E+02  3.865355E+01  1.649953E+07  0.000000E+00  1.000000E+00  0.000000E+00  0.000000E+00  1.024000E+03  0.000000E+00  3.433014E-17  3.131201E-01    1 
 5.000000E-01  5.000000E-01  1.015000E+02  3.861305E+01  1.648949E+07  0.000000E+00  1.000000E+00  0.000000E+00  0.000000E+00  1.024000E+03  0.000000E+00  3.433575E-17  3.133705E-01    1 
 5.000000E-01  5.000000E-01  1.025000E+02  3.857256E+01  1.647946E+07  0.000000E+00  1.000000E+00  0.000000E+00  0.000000E+00  1.024000E+03  0.000000E+00  3.434136E-17  3.136211E-01    1 
 5.000000E-01  5.000000E-01  1.035000E+02  3.853208E+01  1.646942E+07  0.000000E+00  1.000000E+00  0.000000E+00  0.000000E+00  1.024000E+03  0.000000E+00  3.434698E-17  3.138719E-01    1 
 5.000000E-01  5.000000E-01  1.045000E+02  3.849160E+01  1.645938E+07  0.000000E+00  1.000000E+00  0.000000E+00  0.000000E+00  1.024000E+03  0.000000E+00  3.435260E-17  3.141229E-01    1 
 5.000000E-01  5.000000E-01  1.055000E+02  3.845113E+01  1.644935E+07  0.000000E+00  1.000000E+00  0.000000E+00  0.000000E+00  1.024000E+03  0.000000E+00  3.435823E-17  3.143741E-01    1 
 5.000000E-01  5.000000E-01  1.065000E+02  3.841066E+01  1.643931E+07  0.000000E+00  1.000000E+00  0.000000E+00  0.000000E+00  1.024000E+03  0.000000E+00  3.436386E-17  3.146255E-01    1 
 5.000000E-01  5.000000E-01  1.075000E+02  3.837019E+01  1.642928E+07  0.000000E+00  1.000000E+00  0.000000E+00  0.000000E+00  1.024000E+03  0.000000E+00  3.436950E-17  3.148771E-01    1 
 5.000000E-01  5.000000E-01  1.085000E+02  3.832974E+01  1.641924E+07  0.000000E+00  1.000000E+00  0.000000E+00  0.000000E+00  1.024000E+03  0.000000E+00  3.437514E-17  3.151289E-01    1 
 5.000000E-01  5.000000E-01  1.095000E+02  3.828928E+01  1.640921E+07  0.000000E+00  1.000000E+00  0.000000E+00  0.000000E+00  1.024000E+03  0.000000E+00  3.438079E-17  3.153809E-01    1 
 5.000000E-01  5.000000E-01  1.105000E+02  3.824884E+01  1.639917E+07  0.000000E+00  1.000000E+00  0.000000E+00  0.000000E+00  1.024000E+03  0.000000E+00  3.438645E-17  3.156331E-01    1 
 5.000000E-01  5.000000E-01  1.115000E+02  3.820839E+01  1.638914E+07  0.000000E+00  1.000000E+00  0.000000E+00  0.000000E+00  1.024000E+03  0.000000E+00  3.439211E-17  3.158855E-01    1 
 5.000000E-01  5.000000E-01  1.125000E+02  3.816796E+01  1.637910E+07  0.000000E+00  1.000000E+00  0.000000E+00  0.000000E+00  1.024000E+03  0.000000E+00  3.439777E-17  3.161381E-01    1 
 5.000000E-01  5.000000E-01  1.135000E+02  3.812752E+01  1.636907E+07  0.000000E+00  1.000000E+00  0.000000E+00  0.000000E+00  1.024000E+03  0.000000E+00  3.440344E-17  3.163909E-01    1 
 5.000000E-01  5.000000E-01  1.145000E+02  3.808710E+01  1.635903E+07  0.000000E+00  1.000000E+00  0.000000E+00  0.000000E+00  1.024000E+03  0.000000E+00  3.440912E-17  3.166439E-01    1 
 5.000000E-01  5.000000E-01  1.155000E+02  3.804668E+01  1.634899E+07  0.000000E+00  1.000000E+00  0.000000E+00  0.000000E+00  1.024000E+03  0.000000E+00  3.441480E-17  3.168971E-01    1 
 5.000000E-01  5.000000E-01  1.165000E+02  3.800626E+01  1.633896E+07  0.000000E+00  1.000000E+00  0.000000E+00  0.000000E+00  1.024000E+03  0.000000E+00  3.442049E-17  3.171506E-01    1 
 5.000000E-01  5.000000E-01  1.175000E+02  3.796585E+01  1.632892E+07  1.632895E+07  9.999483E-01  5.173759E-05  0.000000E+00  1.024000E+03  1.564833E+02  3.442618E-17  3.174042E-01    1 
 5.000000E-01  5.000000E-01  1.185000E+02  3.792544E+01  1.631889E+07  1.631896E+07  9.998886E-01  1.114199E-04  0.000000E+00  1.024000E+03  1.564186E+02  3.443188E-17  3.176580E-01    1 
 5.000000E-01  5.000000E-01  1.195000E+02  3.788504E+01  1.630885E+07  1.630896E+07  9.998304E-01  1.696470E-04  0.000000E+00  1.024000E+03  1.563540E+02  3.443758E-17  3.179120E-01    1 
 5.000000E-01  5.000000E-01  1.205000E+02  3.784465E+01  1.629882E+07  1.629896E+07  9.997711E-01  2.288696E-04  0.000000E+00  1.024000E+03  1.562893E+02  3.444329E-17  3.181663E-01    1 
 5.000000E-01  5.000000E-01  1.215000E+02  3.780425E+01  1.628878E+07  1.628896E+07  9.997093E-01  2.907368E-04  0.000000E+00  1.024000E+03  1.562246E+02  3.444901E-17  3.184207E-01    1 
 5.000000E-01  5.000000E-01  1.225000E+02  3.776387E+01  1.627874E+07  1.627896E+07  9.996432E-01  3.567975E-04  0.000000E+00  1.024000E+03  1.561598E+02  3.445473E-17  3.186753E-01    1 
 5.000000E-01  5.000000E-01  1.235000E+02  3.772349E+01  1.626871E+07  1.626897E+07  9.995708E-01  4.291992E-04  0.000000E+00  1.024000E+03  1.560951E+02  3.446046E-17  3.189302E-01    1 
 5.000000E-01  5.000000E-01  1.245000E+02  3.768311E+01  1.625867E+07  1.625898E+07  9.994904E-01  5.095892E-04  0.000000E+00  1.024000E+03  1.560304E+02  3.446619E-17  3.191852E-01    1 
 5.000000E-01  5.000000E-01  1.255000E+02  3.764274E+01  1.624864E+07  1.624900E+07  9.994021E-01  5.979091E-04  0.000000E+00  1.024000E+03  1.559657E+02  3.447192E-17  3.194405E-01    1 
 5.000000E-01  5.000000E-01  1.265000E+02  3.760237E+01  1.623860E+07  1.623902E+07  9.993078E-01  6.921826E-04  0.000000E+00  1.024000E+03  1.559010E+02  3.447767E-17  3.196959E-01    1 
 5.000000E-01  5.000000E-01  1.275000E+02  3.756201E+01  1.622857E+07  1.622904E+07  9.992108E-01  7.891818E-04  0.000000E+00  1.024000E+03  1.558363E+02  3.448342E-17  3.199516E-01    1 
 5.000000E-01  5.000000E-01  1.285000E+02  3.752165E+01  1.621853E+07  1.621906E+07  9.991159E-01  8.841316E-04  0.000000E+00  1.024000E+03  1.557715E+02  3.448917E-17  3.202074E-01    1 
 5.000000E-01  5.000000E-01  1.295000E+02  3.748130E+01  1.620849E+07  1.620908E+07  9.990269E-01  9.730617E-04  0.000000E+00  1.024000E+03  1.557067E+02  3.449493E-17  3.204635E-01    1 
 5.000000E-01  5.000000E-01  1.305000E+02  3.744095E+01  1.619846E+07  1.619909E+07  9.989460E-01  1.053974E-03  0.000000E+00  1.024000E+03  1.556418E+02  3.450069E-17  3.207197E-01    1 
 5.000000E-01  5.000000E-01  1.315000E+02  3.740061E+01  1.618842E+07  1.618910E+07  9.988733E-01  1.126744E-03  0.000000E+00  1.024000E+03  1.555769E+02  3.450646E-17  3.209762E-01    1 
 5.000000E-01  5.000000E-01  1.325000E+02  3.736027E+01  1.617838E+07  1.617910E+07  9.988076E-01  1.192442E-03  0.000000E+00  1.024000E+03  1.555119E+02  3.451224E-17  3.212329E-01    1 
 5.000000E-01  5.000000E-01  1.335000E+02  3.731994E+01  1.616835E+07  1.616910E+07  9.987472E-01  1.252819E-03  0.000000E+00  1.024000E+03  1.554468E+02  3.451802E-17  3.214898E-01    1 
 5.000000E-01  5.000000E-01  1.345000E+02  3.727961E+01  1.615831E+07  1.615909E+07  9.986902E-01  1.309821E-03  0.000000E+00  1.024000E+03  1.553817E+02  3.452381E-17  3.217469E-01    1 
 5.000000E-01  5.000000E-01  1.355000E+02  3.723929E+01  1.614827E+07  1.614909E+07  9.986349E-01  1.365082E-03  0.000000E+00  1.024000E+03  1.553165E+02  3.452960E-17  3.220042E-01    1 
 5.000000E-01  5.000000E-01  1.365000E+02  3.719897E+01  1.613824E+07  1.613909E+07  9.985804E-01  1.419646E-03  0.000000E+00  1.024000E+03  1.552513E+02  3.453540E-17  3.222617E-01    1 
 5.000000E-01  5.000000E-01  1.375000E+02  3.715866E+01  1.612820E+07  1.612908E+07  9.985260E-01  1.474022E-03  0.000000E+00  1.024000E+03  1.551861E+02  3.454121E-17  3.225194E-01    1 
 5.000000E-01  5.000000E-01  1.385000E+02  3.711835E+01  1.611816E+07  1.611908E+07  9.984716E-01  1.528390E-03  0.000000E+00  1.024000E+03  1.551209E+02  3.454701E-17  3.227773E-01    1 
 5.000000E-01  5.000000E-01  1.395000E+02  3.707805E+01  1.610813E+07  1.610907E+07  9.984172E-01  1.582780E-03  0.000000E+00  1.024000E+03  1.550556E+02  3.455283E-17  3.230354E-01    1 
 5.000000E-01  5.000000E-01  1.405000E+02  3.703775E+01  1.609809E+07  1.609907E+07  9.983628E-01  1.637151E-03  0.000000E+00  1.024000E+03  1.549903E+02  3.455865E-17  3.232937E-01    1 
 5.000000E-01  5.000000E-01  1.415000E+02  3.699746E+01  1.608805E+07  1.608906E+07  9.983086E-01  1.691422E-03  0.000000E+00  1.024000E+03  1.549249E+02  3.456448E-17  3.235523E-01    1 
 5.000000E-01  5.000000E-01  1.425000E+02  3.695717E+01  1.607802E+07  1.607905E+07  9.982545E-01  1.745484E-03  0.000000E+00  1.024000E+03  1.548596E+02  3.457031E-17  3.238110E-01    1 
 5.000000E-01  5.000000E-01  1.435000E+02  3.691689E+01  1.606798E+07  1.606905E+07  9.982008E-01  1.799213E-03  0.000000E+00  1.024000E+03  1.547942E+02  3.457615E-17  3.240699E-01    1 
 5.000000E-01  5.000000E-01  1.445000E+02  3.687661E+01  1.605794E+07  1.605904E+07  9.981475E-01  1.852481E-03  0.000000E+00  1.024000E+03  1.547288E+02  3.458199E-17  3.243291E-01    1 
 5.000000E-01  5.000000E-01  1.455000E+02  3.683634E+01  1.604790E+07  1.604904E+07  9.980948E-01  1.905176E-03  0.000000E+00  1.024000E+03  1.546633E+02  3.458784E-17  3.245885E-01    1 
 5.000000E-01  5.000000E-01  1.465000E+02  3.679607E+01  1.603787E+07  1.603903E+07  9.980428E-01  1.957213E-03  0.000000E+00  1.024000E+03  1.545978E+02  3.459370E-17  3.248480E-01    1 
 5.000000E-01  5.000000E-01  1.475000E+02  3.675581E+01  1.602783E+07  1.602902E+07  9.979915E-01  2.008546E-03  0.000000E+00  1.024000E+03  1.545323E+02  3.459956E-17  3.251078E-01    1 
 5.000000E-01  5.000000E-01  1.485000E+02  3.671555E+01  1.601779E+07  1.601901E+07  9.979408E-01  2.059167E-03  0.000000E+00  1.024000E+03  1.544667E+02  3.460542E-17  3.253678E-01    1 
 5.000000E-01  5.000000E-01  1.495000E+02  3.667530E+01  1.600776E+07  1.600900E+07  9.978909E-01  2.109104E-03  0.000000E+00  1.024000E+03  1.544011E+02  3.461129E-17  3.256280E-01    1 
 5.000000E-01  5.000000E-01  1.505000E+02  3.663506E+01  1.599772E+07  1.599900E+07  9.978416E-01  2.158410E-03  0.000000E+00  1.024000E+03  1.543355E+02  3.461717E-17  3.258884E-01    1 
 5.000000E-01  5.000000E-01  1.515000E+02  3.659481E+01  1.598768E+07  1.598899E+07  9.977928E-01  2.207156E-03  0.000000E+00  1.024000E+03  1.542699E+02  3.462306E-17  3.261490E-01    1 
 5.000000E-01  5.000000E-01  1.525000E+02  3.655458E+01  1.597764E+07  1.597898E+07  9.977446E-01  2.255419E-03  0.000000E+00  1.024000E+03  1.542042E+02  3.462894E-17  3.264098E-01    1 
 5.000000E-01  5.000000E-01  1.535000E+02  3.651434E+01  1.596761E+07  1.596897E+07  9.976967E-01  2.303277E-03  0.000000E+00  1.024000E+03  1.541385E+02  3.463484E-17  3.266708E-01    1 
 5.000000E-01  5.000000E-01  1.545000E+02  3.647412E+01  1.595757E+07  1.595896E+07  9.976492E-01  2.350805E-03  0.000000E+00  1.024000E+03  1.540727E+02  3.464074E-17  3.269320E-01    1 
 5.000000E-01  5.000000E-01  1.555000E+02  3.643390E+01  1.594753E+07  1.594894E+07  9.976019E-01  2.398070E-03  0.000000E+00  1.024000E+03  1.540069E+02  3.464665E-17  3.271935E-01    1 
 5.000000E-01  5.000000E-01  1.565000E+02  3.639368E+01  1.593749E+07  1.593893E+07  9.975549E-01  2.445133E-03  0.000000E+00  1.024000E+03  1.539411E+02  3.465256E-17  3.274551E-01    1 