TITLE = "  9.30000E+04 [y]"
VARIABLES="X [m]","Y [m]","Z [m]","Temperature [C]","Liquid Pressure [Pa]","Gas Pressure [Pa]","Liquid Saturation","Gas Saturation","Hydrate Saturation","Liquid Density [kg/m^3]","Gas Density [kg/m^3]","Permeability X [m^2]","Porosity","Material ID"
ZONE T="9.30000E+04", STRANDID=1, SOLUTIONTIME=9.30000E+04, I=1, J=1, K=1000, DATAPACKING=POINT
 5.000000E-01  5.000000E-01  5.000000E-01  4.162863E+01  1.667741E+07  1.668185E+07  9.918211E-01  8.178864E-03  0.000000E+00  1.024000E+03  1.577827E+02  3.379583E-17  2.890648E-01    1 
 5.000000E-01  5.000000E-01  1.500000E+00  4.158758E+01  1.666737E+07  1.667185E+07  9.917421E-01  8.257896E-03  0.000000E+00  1.024000E+03  1.577195E+02  3.380093E-17  2.892959E-01    1 
 5.000000E-01  5.000000E-01  2.500000E+00  4.154653E+01  1.665734E+07  1.666185E+07  9.916711E-01  8.328884E-03  0.000000E+00  1.024000E+03  1.576561E+02  3.380603E-17  2.895273E-01    1 
 5.000000E-01  5.000000E-01  3.500000E+00  4.150549E+01  1.664730E+07  1.665185E+07  9.915995E-01  8.400472E-03  0.000000E+00  1.024000E+03  1.575928E+02  3.381113E-17  2.897588E-01    1 
 5.000000E-01  5.000000E-01  4.500000E+00  4.146444E+01  1.663727E+07  1.664185E+07  9.915273E-01  8.472656E-03  0.000000E+00  1.024000E+03  1.575295E+02  3.381624E-17  2.899905E-01    1 
 5.000000E-01  5.000000E-01  5.500000E+00  4.142340E+01  1.662723E+07  1.663185E+07  9.914546E-01  8.545402E-03  0.000000E+00  1.024000E+03  1.574661E+02  3.382135E-17  2.902224E-01    1 
 5.000000E-01  5.000000E-01  6.500000E+00  4.138237E+01  1.661719E+07  1.662185E+07  9.913813E-01  8.618672E-03  0.000000E+00  1.024000E+03  1.574027E+02  3.382647E-17  2.904545E-01    1 
 5.000000E-01  5.000000E-01  7.500000E+00  4.134133E+01  1.660716E+07  1.661185E+07  9.913076E-01  8.692423E-03  0.000000E+00  1.024000E+03  1.573392E+02  3.383160E-17  2.906868E-01    1 
 5.000000E-01  5.000000E-01  8.500000E+00  4.130030E+01  1.659712E+07  1.660185E+07  9.912334E-01  8.766611E-03  0.000000E+00  1.024000E+03  1.572758E+02  3.383673E-17  2.909192E-01    1 
 5.000000E-01  5.000000E-01  9.500000E+00  4.125927E+01  1.658709E+07  1.659185E+07  9.911588E-01  8.841184E-03  0.000000E+00  1.024000E+03  1.572123E+02  3.384186E-17  2.911519E-01    1 
 5.000000E-01  5.000000E-01  1.050000E+01  4.121825E+01  1.657705E+07  1.658184E+07  9.910839E-01  8.916092E-03  0.000000E+00  1.024000E+03  1.571488E+02  3.384700E-17  2.913847E-01    1 
 5.000000E-01  5.000000E-01  1.150000E+01  4.117723E+01  1.656702E+07  1.657184E+07  9.910087E-01  8.991276E-03  0.000000E+00  1.024000E+03  1.570852E+02  3.385214E-17  2.916177E-01    1 
 5.000000E-01  5.000000E-01  1.250000E+01  4.113621E+01  1.655698E+07  1.656184E+07  9.909333E-01  9.066679E-03  0.000000E+00  1.024000E+03  1.570216E+02  3.385729E-17  2.918509E-01    1 
 5.000000E-01  5.000000E-01  1.350000E+01  4.109519E+01  1.654694E+07  1.655184E+07  9.908578E-01  9.142238E-03  0.000000E+00  1.024000E+03  1.569581E+02  3.386244E-17  2.920843E-01    1 
 5.000000E-01  5.000000E-01  1.450000E+01  4.105418E+01  1.653691E+07  1.654184E+07  9.907821E-01  9.217889E-03  0.000000E+00  1.024000E+03  1.568944E+02  3.386760E-17  2.923179E-01    1 
 5.000000E-01  5.000000E-01  1.550000E+01  4.101317E+01  1.652687E+07  1.653184E+07  9.907064E-01  9.293568E-03  0.000000E+00  1.024000E+03  1.568308E+02  3.387276E-17  2.925516E-01    1 
 5.000000E-01  5.000000E-01  1.650000E+01  4.097216E+01  1.651684E+07  1.652184E+07  9.906308E-01  9.369206E-03  0.000000E+00  1.024000E+03  1.567671E+02  3.387793E-17  2.927856E-01    1 
 5.000000E-01  5.000000E-01  1.750000E+01  4.093116E+01  1.650680E+07  1.651184E+07  9.905553E-01  9.444737E-03  0.000000E+00  1.024000E+03  1.567034E+02  3.388310E-17  2.930197E-01    1 
 5.000000E-01  5.000000E-01  1.850000E+01  4.089016E+01  1.649676E+07  1.650183E+07  9.904799E-01  9.520095E-03  0.000000E+00  1.024000E+03  1.566397E+02  3.388828E-17  2.932541E-01    1 
 5.000000E-01  5.000000E-01  1.950000E+01  4.084916E+01  1.648673E+07  1.649183E+07  9.904048E-01  9.595211E-03  0.000000E+00  1.024000E+03  1.565759E+02  3.389346E-17  2.934886E-01    1 
 5.000000E-01  5.000000E-01  2.050000E+01  4.080816E+01  1.647669E+07  1.648183E+07  9.903300E-01  9.670023E-03  0.000000E+00  1.024000E+03  1.565121E+02  3.389865E-17  2.937233E-01    1 
 5.000000E-01  5.000000E-01  2.150000E+01  4.076717E+01  1.646665E+07  1.647183E+07  9.902555E-01  9.744467E-03  0.000000E+00  1.024000E+03  1.564483E+02  3.390384E-17  2.939581E-01    1 
 5.000000E-01  5.000000E-01  2.250000E+01  4.072618E+01  1.645662E+07  1.646182E+07  9.901815E-01  9.818485E-03  0.000000E+00  1.024000E+03  1.563844E+02  3.390904E-17  2.941932E-01    1 
 5.000000E-01  5.000000E-01  2.350000E+01  4.068520E+01  1.644658E+07  1.645182E+07  9.901080E-01  9.892022E-03  0.000000E+00  1.024000E+03  1.563205E+02  3.391424E-17  2.944285E-01    1 
 5.000000E-01  5.000000E-01  2.450000E+01  4.064421E+01  1.643654E+07  1.644182E+07  9.900350E-01  9.965026E-03  0.000000E+00  1.024000E+03  1.562566E+02  3.391945E-17  2.946639E-01    1 
 5.000000E-01  5.000000E-01  2.550000E+01  4.060323E+01  1.642651E+07  1.643181E+07  9.899625E-01  1.003745E-02  0.000000E+00  1.024000E+03  1.561927E+02  3.392466E-17  2.948996E-01    1 
 5.000000E-01  5.000000E-01  2.650000E+01  4.056226E+01  1.641647E+07  1.642181E+07  9.898907E-01  1.010926E-02  0.000000E+00  1.024000E+03  1.561287E+02  3.392988E-17  2.951354E-01    1 
 5.000000E-01  5.000000E-01  2.750000E+01  4.052128E+01  1.640643E+07  1.641180E+07  9.898196E-01  1.018043E-02  0.000000E+00  1.024000E+03  1.560647E+02  3.393510E-17  2.953714E-01    1 
 5.000000E-01  5.000000E-01  2.850000E+01  4.048031E+01  1.639640E+07  1.640180E+07  9.897491E-01  1.025092E-02  0.000000E+00  1.024000E+03  1.560007E+02  3.394033E-17  2.956076E-01    1 
 5.000000E-01  5.000000E-01  2.950000E+01  4.043934E+01  1.638636E+07  1.639179E+07  9.896793E-01  1.032071E-02  0.000000E+00  1.024000E+03  1.559366E+02  3.394556E-17  2.958440E-01    1 
 5.000000E-01  5.000000E-01  3.050000E+01  4.039838E+01  1.637632E+07  1.638178E+07  9.896102E-01  1.038980E-02  0.000000E+00  1.024000E+03  1.558725E+02  3.395080E-17  2.960806E-01    1 
 5.000000E-01  5.000000E-01  3.150000E+01  4.035742E+01  1.636628E+07  1.637178E+07  9.895418E-01  1.045818E-02  0.000000E+00  1.024000E+03  1.558084E+02  3.395604E-17  2.963173E-01    1 
 5.000000E-01  5.000000E-01  3.250000E+01  4.031646E+01  1.635625E+07  1.636177E+07  9.894742E-01  1.052584E-02  0.000000E+00  1.024000E+03  1.557442E+02  3.396129E-17  2.965543E-01    1 
 5.000000E-01  5.000000E-01  3.350000E+01  4.027550E+01  1.634621E+07  1.635176E+07  9.894072E-01  1.059281E-02  0.000000E+00  1.024000E+03  1.556800E+02  3.396654E-17  2.967915E-01    1 
 5.000000E-01  5.000000E-01  3.450000E+01  4.023455E+01  1.633617E+07  1.634175E+07  9.893409E-01  1.065909E-02  0.000000E+00  1.024000E+03  1.556158E+02  3.397180E-17  2.970288E-01    1 
 5.000000E-01  5.000000E-01  3.550000E+01  4.019360E+01  1.632613E+07  1.633174E+07  9.892753E-01  1.072470E-02  0.000000E+00  1.024000E+03  1.555516E+02  3.397706E-17  2.972663E-01    1 
 5.000000E-01  5.000000E-01  3.650000E+01  4.015265E+01  1.631610E+07  1.632173E+07  9.892103E-01  1.078966E-02  0.000000E+00  1.024000E+03  1.554873E+02  3.398233E-17  2.975040E-01    1 
 5.000000E-01  5.000000E-01  3.750000E+01  4.011171E+01  1.630606E+07  1.631172E+07  9.891460E-01  1.085401E-02  0.000000E+00  1.024000E+03  1.554230E+02  3.398760E-17  2.977419E-01    1 
 5.000000E-01  5.000000E-01  3.850000E+01  4.007077E+01  1.629602E+07  1.630171E+07  9.890822E-01  1.091777E-02  0.000000E+00  1.024000E+03  1.553587E+02  3.399288E-17  2.979800E-01    1 
 5.000000E-01  5.000000E-01  3.950000E+01  4.002983E+01  1.628598E+07  1.629170E+07  9.890190E-01  1.098098E-02  0.000000E+00  1.024000E+03  1.552943E+02  3.399816E-17  2.982183E-01    1 
 5.000000E-01  5.000000E-01  4.050000E+01  3.998890E+01  1.627595E+07  1.628169E+07  9.889563E-01  1.104367E-02  0.000000E+00  1.024000E+03  1.552299E+02  3.400345E-17  2.984568E-01    1 
 5.000000E-01  5.000000E-01  4.150000E+01  3.994797E+01  1.626591E+07  1.627168E+07  9.888941E-01  1.110587E-02  0.000000E+00  1.024000E+03  1.551655E+02  3.400874E-17  2.986955E-01    1 
 5.000000E-01  5.000000E-01  4.250000E+01  3.990704E+01  1.625587E+07  1.626167E+07  9.888324E-01  1.116763E-02  0.000000E+00  1.024000E+03  1.551010E+02  3.401404E-17  2.989343E-01    1 
 5.000000E-01  5.000000E-01  4.350000E+01  3.986612E+01  1.624583E+07  1.625166E+07  9.887710E-01  1.122899E-02  0.000000E+00  1.024000E+03  1.550365E+02  3.401934E-17  2.991734E-01    1 
 5.000000E-01  5.000000E-01  4.450000E+01  3.982520E+01  1.623579E+07  1.624165E+07  9.887100E-01  1.128998E-02  0.000000E+00  1.024000E+03  1.549720E+02  3.402465E-17  2.994126E-01    1 
 5.000000E-01  5.000000E-01  4.550000E+01  3.978428E+01  1.622576E+07  1.623163E+07  9.886494E-01  1.135063E-02  0.000000E+00  1.024000E+03  1.549074E+02  3.402996E-17  2.996521E-01    1 
 5.000000E-01  5.000000E-01  4.650000E+01  3.974336E+01  1.621572E+07  1.622162E+07  9.885890E-01  1.141099E-02  0.000000E+00  1.024000E+03  1.548429E+02  3.403528E-17  2.998917E-01    1 
 5.000000E-01  5.000000E-01  4.750000E+01  3.970245E+01  1.620568E+07  1.621161E+07  9.885289E-01  1.147110E-02  0.000000E+00  1.024000E+03  1.547783E+02  3.404060E-17  3.001315E-01    1 
 5.000000E-01  5.000000E-01  4.850000E+01  3.966154E+01  1.619564E+07  1.620160E+07  9.884690E-01  1.153098E-02  0.000000E+00  1.024000E+03  1.547136E+02  3.404593E-17  3.003715E-01    1 
 5.000000E-01  5.000000E-01  4.950000E+01  3.962064E+01  1.618560E+07  1.619158E+07  9.884093E-01  1.159068E-02  0.000000E+00  1.024000E+03  1.546490E+02  3.405126E-17  3.006117E-01    1 
 5.000000E-01  5.000000E-01  5.050000E+01  3.957973E+01  1.617556E+07  1.618157E+07  9.883498E-01  1.165022E-02  0.000000E+00  1.024000E+03  1.545843E+02  3.405660E-17  3.008521E-01    1 
 5.000000E-01  5.000000E-01  5.150000E+01  3.953883E+01  1.616552E+07  1.617156E+07  9.882904E-01  1.170964E-02  0.000000E+00  1.024000E+03  1.545196E+02  3.406195E-17  3.010927E-01    1 
 5.000000E-01  5.000000E-01  5.250000E+01  3.949794E+01  1.615549E+07  1.616154E+07  9.882310E-01  1.176897E-02  0.000000E+00  1.024000E+03  1.544548E+02  3.406729E-17  3.013335E-01    1 
 5.000000E-01  5.000000E-01  5.350000E+01  3.945704E+01  1.614545E+07  1.615153E+07  9.881717E-01  1.182825E-02  0.000000E+00  1.024000E+03  1.543900E+02  3.407265E-17  3.015744E-01    1 
 5.000000E-01  5.000000E-01  5.450000E+01  3.941615E+01  1.613541E+07  1.614151E+07  9.881125E-01  1.188751E-02  0.000000E+00  1.024000E+03  1.543252E+02  3.407801E-17  3.018156E-01    1 
 5.000000E-01  5.000000E-01  5.550000E+01  3.937527E+01  1.612537E+07  1.613150E+07  9.880532E-01  1.194677E-02  0.000000E+00  1.024000E+03  1.542604E+02  3.408337E-17  3.020570E-01    1 
 5.000000E-01  5.000000E-01  5.650000E+01  3.933438E+01  1.611533E+07  1.612149E+07  9.879939E-01  1.200606E-02  0.000000E+00  1.024000E+03  1.541955E+02  3.408874E-17  3.022985E-01    1 
 5.000000E-01  5.000000E-01  5.750000E+01  3.929350E+01  1.610529E+07  1.611147E+07  9.879346E-01  1.206543E-02  0.000000E+00  1.024000E+03  1.541306E+02  3.409411E-17  3.025403E-01    1 
 5.000000E-01  5.000000E-01  5.850000E+01  3.925262E+01  1.609525E+07  1.610146E+07  9.878751E-01  1.212489E-02  0.000000E+00  1.024000E+03  1.540657E+02  3.409949E-17  3.027822E-01    1 
 5.000000E-01  5.000000E-01  5.950000E+01  3.921175E+01  1.608521E+07  1.609144E+07  9.878155E-01  1.218447E-02  0.000000E+00  1.024000E+03  1.540008E+02  3.410488E-17  3.030243E-01    1 
 5.000000E-01  5.000000E-01  6.050000E+01  3.917088E+01  1.607517E+07  1.608143E+07  9.877558E-01  1.224421E-02  0.000000E+00  1.024000E+03  1.539358E+02  3.411027E-17  3.032666E-01    1 
 5.000000E-01  5.000000E-01  6.150000E+01  3.913001E+01  1.606513E+07  1.607141E+07  9.876959E-01  1.230413E-02  0.000000E+00  1.024000E+03  1.538708E+02  3.411566E-17  3.035092E-01    1 
 5.000000E-01  5.000000E-01  6.250000E+01  3.908914E+01  1.605510E+07  1.606140E+07  9.876357E-01  1.236427E-02  0.000000E+00  1.024000E+03  1.538058E+02  3.412106E-17  3.037519E-01    1 
 5.000000E-01  5.000000E-01  6.350000E+01  3.904828E+01  1.604506E+07  1.605138E+07  9.875754E-01  1.242464E-02  0.000000E+00  1.024000E+03  1.537407E+02  3.412647E-17  3.039948E-01    1 
 5.000000E-01  5.000000E-01  6.450000E+01  3.900742E+01  1.603502E+07  1.604137E+07  9.875147E-01  1.248527E-02  0.000000E+00  1.024000E+03  1.536756E+02  3.413188E-17  3.042379E-01    1 
 5.000000E-01  5.000000E-01  6.550000E+01  3.896657E+01  1.602498E+07  1.603136E+07  9.874538E-01  1.254620E-02  0.000000E+00  1.024000E+03  1.536105E+02  3.413729E-17  3.044812E-01    1 
 5.000000E-01  5.000000E-01  6.650000E+01  3.892572E+01  1.601494E+07  1.602134E+07  9.873925E-01  1.260745E-02  0.000000E+00  1.024000E+03  1.535454E+02  3.414271E-17  3.047247E-01    1 
 5.000000E-01  5.000000E-01  6.750000E+01  3.888487E+01  1.600490E+07  1.601133E+07  9.873310E-01  1.266904E-02  0.000000E+00  1.024000E+03  1.534802E+02  3.414814E-17  3.049683E-01    1 
 5.000000E-01  5.000000E-01  6.850000E+01  3.884402E+01  1.599486E+07  1.600131E+07  9.872690E-01  1.273100E-02  0.000000E+00  1.024000E+03  1.534150E+02  3.415357E-17  3.052122E-01    1 
 5.000000E-01  5.000000E-01  6.950000E+01  3.880318E+01  1.598482E+07  1.599130E+07  9.872067E-01  1.279334E-02  0.000000E+00  1.024000E+03  1.533498E+02  3.415901E-17  3.054563E-01    1 
 5.000000E-01  5.000000E-01  7.050000E+01  3.876234E+01  1.597478E+07  1.598128E+07  9.871439E-01  1.285610E-02  0.000000E+00  1.024000E+03  1.532845E+02  3.416445E-17  3.057006E-01    1 
 5.000000E-01  5.000000E-01  7.150000E+01  3.872150E+01  1.596474E+07  1.597127E+07  9.870807E-01  1.291929E-02  0.000000E+00  1.024000E+03  1.532193E+02  3.416989E-17  3.059450E-01    1 
 5.000000E-01  5.000000E-01  7.250000E+01  3.868067E+01  1.595470E+07  1.596125E+07  9.870171E-01  1.298292E-02  0.000000E+00  1.024000E+03  1.531539E+02  3.417535E-17  3.061897E-01    1 
 5.000000E-01  5.000000E-01  7.350000E+01  3.863984E+01  1.594466E+07  1.595124E+07  9.869530E-01  1.304703E-02  0.000000E+00  1.024000E+03  1.530886E+02  3.418080E-17  3.064345E-01    1 
 5.000000E-01  5.000000E-01  7.450000E+01  3.859901E+01  1.593462E+07  1.594122E+07  9.868884E-01  1.311161E-02  0.000000E+00  1.024000E+03  1.530233E+02  3.418627E-17  3.066796E-01    1 
 5.000000E-01  5.000000E-01  7.550000E+01  3.855818E+01  1.592458E+07  1.593121E+07  9.868233E-01  1.317668E-02  0.000000E+00  1.024000E+03  1.529579E+02  3.419173E-17  3.069248E-01    1 
 5.000000E-01  5.000000E-01  7.650000E+01  3.851736E+01  1.591454E+07  1.592119E+07  9.867577E-01  1.324226E-02  0.000000E+00  1.024000E+03  1.528925E+02  3.419721E-17  3.071703E-01    1 
 5.000000E-01  5.000000E-01  7.750000E+01  3.847655E+01  1.590450E+07  1.591118E+07  9.866917E-01  1.330834E-02  0.000000E+00  1.024000E+03  1.528270E+02  3.420268E-17  3.074159E-01    1 
 5.000000E-01  5.000000E-01  7.850000E+01  3.843573E+01  1.589446E+07  1.590117E+07  9.866251E-01  1.337493E-02  0.000000E+00  1.024000E+03  1.527615E+02  3.420817E-17  3.076617E-01    1 
 5.000000E-01  5.000000E-01  7.950000E+01  3.839492E+01  1.588441E+07  1.589115E+07  9.865580E-01  1.344203E-02  0.000000E+00  1.024000E+03  1.526961E+02  3.421366E-17  3.079078E-01    1 
 5.000000E-01  5.000000E-01  8.050000E+01  3.835411E+01  1.587437E+07  1.588114E+07  9.864904E-01  1.350963E-02  0.000000E+00  1.024000E+03  1.526305E+02  3.421915E-17  3.081540E-01    1 
 5.000000E-01  5.000000E-01  8.150000E+01  3.831331E+01  1.586433E+07  1.587112E+07  9.864223E-01  1.357773E-02  0.000000E+00  1.024000E+03  1.525650E+02  3.422465E-17  3.084004E-01    1 
 5.000000E-01  5.000000E-01  8.250000E+01  3.827250E+01  1.585429E+07  1.586111E+07  9.863537E-01  1.364631E-02  0.000000E+00  1.024000E+03  1.524994E+02  3.423015E-17  3.086470E-01    1 
 5.000000E-01  5.000000E-01  8.350000E+01  3.823170E+01  1.584425E+07  1.585110E+07  9.862846E-01  1.371536E-02  0.000000E+00  1.024000E+03  1.524338E+02  3.423566E-17  3.088939E-01    1 
 5.000000E-01  5.000000E-01  8.450000E+01  3.819091E+01  1.583421E+07  1.584108E+07  9.862151E-01  1.378487E-02  0.000000E+00  1.024000E+03  1.523682E+02  3.424118E-17  3.091409E-01    1 
 5.000000E-01  5.000000E-01  8.550000E+01  3.815011E+01  1.582417E+07  1.583107E+07  9.861452E-01  1.385480E-02  0.000000E+00  1.024000E+03  1.523025E+02  3.424670E-17  3.093881E-01    1 
 5.000000E-01  5.000000E-01  8.650000E+01  3.810932E+01  1.581413E+07  1.582105E+07  9.860749E-01  1.392513E-02  0.000000E+00  1.024000E+03  1.522368E+02  3.425222E-17  3.096355E-01    1 
 5.000000E-01  5.000000E-01  8.750000E+01  3.806854E+01  1.580409E+07  1.581104E+07  9.860042E-01  1.399583E-02  0.000000E+00  1.024000E+03  1.521711E+02  3.425775E-17  3.098831E-01    1 
 5.000000E-01  5.000000E-01  8.850000E+01  3.802775E+01  1.579405E+07  1.580103E+07  9.859331E-01  1.406686E-02  0.000000E+00  1.024000E+03  1.521054E+02  3.426329E-17  3.101309E-01    1 
 5.000000E-01  5.000000E-01  8.950000E+01  3.798697E+01  1.578400E+07  1.579101E+07  9.858618E-01  1.413820E-02  0.000000E+00  1.024000E+03  1.520396E+02  3.426883E-17  3.103789E-01    1 
 5.000000E-01  5.000000E-01  9.050000E+01  3.794620E+01  1.577396E+07  1.578100E+07  9.857902E-01  1.420979E-02  0.000000E+00  1.024000E+03  1.519738E+02  3.427438E-17  3.106271E-01    1 
 5.000000E-01  5.000000E-01  9.150000E+01  3.790542E+01  1.576392E+07  1.577098E+07  9.857184E-01  1.428160E-02  0.000000E+00  1.024000E+03  1.519080E+02  3.427993E-17  3.108755E-01    1 
 5.000000E-01  5.000000E-01  9.250000E+01  3.786465E+01  1.575388E+07  1.576097E+07  9.856464E-01  1.435359E-02  0.000000E+00  1.024000E+03  1.518421E+02  3.428549E-17  3.111241E-01    1 
 5.000000E-01  5.000000E-01  9.350000E+01  3.782388E+01  1.574384E+07  1.575095E+07  9.855743E-01  1.442571E-02  0.000000E+00  1.024000E+03  1.517762E+02  3.429105E-17  3.113729E-01    1 
 5.000000E-01  5.000000E-01  9.450000E+01  3.778312E+01  1.573380E+07  1.574094E+07  9.855021E-01  1.449791E-02  0.000000E+00  1.024000E+03  1.517103E+02  3.429662E-17  3.116219E-01    1 
 5.000000E-01  5.000000E-01  9.550000E+01  3.774236E+01  1.572375E+07  1.573092E+07  9.854298E-01  1.457015E-02  0.000000E+00  1.024000E+03  1.516444E+02  3.430219E-17  3.118711E-01    1 
 5.000000E-01  5.000000E-01  9.650000E+01  3.770160E+01  1.571371E+07  1.572091E+07  9.853576E-01  1.464239E-02  0.000000E+00  1.024000E+03  1.515784E+02  3.430777E-17  3.121205E-01    1 
 5.000000E-01  5.000000E-01  9.750000E+01  3.766084E+01  1.570367E+07  1.571089E+07  9.852854E-01  1.471459E-02  0.000000E+00  1.024000E+03  1.515124E+02  3.431336E-17  3.123701E-01    1 
 5.000000E-01  5.000000E-01  9.850000E+01  3.762009E+01  1.569363E+07  1.570088E+07  9.852133E-01  1.478669E-02  0.000000E+00  1.024000E+03  1.514463E+02  3.431895E-17  3.126199E-01    1 
 5.000000E-01  5.000000E-01  9.950000E+01  3.757934E+01  1.568358E+07  1.569086E+07  9.851413E-01  1.485866E-02  0.000000E+00  1.024000E+03  1.513803E+02  3.432454E-17  3.128699E-01    1 
 5.000000E-01  5.000000E-01  1.005000E+02  3.753859E+01  1.567354E+07  1.568085E+07  9.850695E-01  1.493047E-02  0.000000E+00  1.024000E+03  1.513142E+02  3.433014E-17  3.131201E-01    1 
 5.000000E-01  5.000000E-01  1.015000E+02  3.749785E+01  1.566350E+07  1.567083E+07  9.849979E-01  1.500207E-02  0.000000E+00  1.024000E+03  1.512481E+02  3.433575E-17  3.133705E-01    1 
 5.000000E-01  5.000000E-01  1.025000E+02  3.745711E+01  1.565346E+07  1.566081E+07  9.849266E-01  1.507344E-02  0.000000E+00  1.024000E+03  1.511819E+02  3.434136E-17  3.136211E-01    1 
 5.000000E-01  5.000000E-01  1.035000E+02  3.741637E+01  1.564341E+07  1.565080E+07  9.848554E-01  1.514455E-02  0.000000E+00  1.024000E+03  1.511157E+02  3.434698E-17  3.138719E-01    1 
 5.000000E-01  5.000000E-01  1.045000E+02  3.737564E+01  1.563337E+07  1.564078E+07  9.847846E-01  1.521538E-02  0.000000E+00  1.024000E+03  1.510495E+02  3.435260E-17  3.141229E-01    1 
 5.000000E-01  5.000000E-01  1.055000E+02  3.733491E+01  1.562333E+07  1.563076E+07  9.847141E-01  1.528589E-02  0.000000E+00  1.024000E+03  1.509833E+02  3.435823E-17  3.143741E-01    1 
 5.000000E-01  5.000000E-01  1.065000E+02  3.729418E+01  1.561329E+07  1.562075E+07  9.846439E-01  1.535608E-02  0.000000E+00  1.024000E+03  1.509170E+02  3.436386E-17  3.146255E-01    1 
 5.000000E-01  5.000000E-01  1.075000E+02  3.725346E+01  1.560324E+07  1.561073E+07  9.845741E-01  1.542594E-02  0.000000E+00  1.024000E+03  1.508507E+02  3.436950E-17  3.148771E-01    1 
 5.000000E-01  5.000000E-01  1.085000E+02  3.721273E+01  1.559320E+07  1.560071E+07  9.845046E-01  1.549544E-02  0.000000E+00  1.024000E+03  1.507844E+02  3.437514E-17  3.151289E-01    1 
 5.000000E-01  5.000000E-01  1.095000E+02  3.717202E+01  1.558316E+07  1.559069E+07  9.844354E-01  1.556459E-02  0.000000E+00  1.024000E+03  1.507180E+02  3.438079E-17  3.153809E-01    1 
 5.000000E-01  5.000000E-01  1.105000E+02  3.713130E+01  1.557311E+07  1.558067E+07  9.843666E-01  1.563339E-02  0.000000E+00  1.024000E+03  1.506516E+02  3.438645E-17  3.156331E-01    1 
 5.000000E-01  5.000000E-01  1.115000E+02  3.709059E+01  1.556307E+07  1.557065E+07  9.842982E-01  1.570183E-02  0.000000E+00  1.024000E+03  1.505852E+02  3.439211E-17  3.158855E-01    1 
 5.000000E-01  5.000000E-01  1.125000E+02  3.704988E+01  1.555303E+07  1.556064E+07  9.842301E-01  1.576992E-02  0.000000E+00  1.024000E+03  1.505187E+02  3.439777E-17  3.161381E-01    1 
 5.000000E-01  5.000000E-01  1.135000E+02  3.700918E+01  1.554298E+07  1.555062E+07  9.841623E-01  1.583766E-02  0.000000E+00  1.024000E+03  1.504522E+02  3.440344E-17  3.163909E-01    1 
 5.000000E-01  5.000000E-01  1.145000E+02  3.696847E+01  1.553294E+07  1.554060E+07  9.840949E-01  1.590506E-02  0.000000E+00  1.024000E+03  1.503857E+02  3.440912E-17  3.166439E-01    1 
 5.000000E-01  5.000000E-01  1.155000E+02  3.692777E+01  1.552290E+07  1.553058E+07  9.840279E-01  1.597213E-02  0.000000E+00  1.024000E+03  1.503192E+02  3.441480E-17  3.168971E-01    1 
 5.000000E-01  5.000000E-01  1.165000E+02  3.688708E+01  1.551285E+07  1.552056E+07  9.839611E-01  1.603888E-02  0.000000E+00  1.024000E+03  1.502526E+02  3.442049E-17  3.171506E-01    1 
 5.000000E-01  5.000000E-01  1.175000E+02  3.684638E+01  1.550281E+07  1.551054E+07  9.838947E-01  1.610533E-02  0.000000E+00  1.024000E+03  1.501860E+02  3.442618E-17  3.174042E-01    1 
 5.000000E-01  5.000000E-01  1.185000E+02  3.680569E+01  1.549276E+07  1.550051E+07  9.838285E-01  1.617148E-02  0.000000E+00  1.024000E+03  1.501193E+02  3.443188E-17  3.176580E-01    1 
 5.000000E-01  5.000000E-01  1.195000E+02  3.676501E+01  1.548272E+07  1.549049E+07  9.837626E-01  1.623735E-02  0.000000E+00  1.024000E+03  1.500527E+02  3.443758E-17  3.179120E-01    1 
 5.000000E-01  5.000000E-01  1.205000E+02  3.672432E+01  1.547268E+07  1.548047E+07  9.836970E-01  1.630296E-02  0.000000E+00  1.024000E+03  1.499860E+02  3.444329E-17  3.181663E-01    1 
 5.000000E-01  5.000000E-01  1.215000E+02  3.668364E+01  1.546263E+07  1.547045E+07  9.836317E-01  1.636832E-02  0.000000E+00  1.024000E+03  1.499192E+02  3.444901E-17  3.184207E-01    1 
 5.000000E-01  5.000000E-01  1.225000E+02  3.664297E+01  1.545259E+07  1.546043E+07  9.835665E-01  1.643345E-02  0.000000E+00  1.024000E+03  1.498525E+02  3.445473E-17  3.186753E-01    1 
 5.000000E-01  5.000000E-01  1.235000E+02  3.660229E+01  1.544254E+07  1.545041E+07  9.835016E-01  1.649836E-02  0.000000E+00  1.024000E+03  1.497857E+02  3.446046E-17  3.189302E-01    1 
 5.000000E-01  5.000000E-01  1.245000E+02  3.656162E+01  1.543250E+07  1.544038E+07  9.834369E-01  1.656308E-02  0.000000E+00  1.024000E+03  1.497188E+02  3.446619E-17  3.191852E-01    1 
 5.000000E-01  5.000000E-01  1.255000E+02  3.652095E+01  1.542245E+07  1.543036E+07  9.833724E-01  1.662760E-02  0.000000E+00  1.024000E+03  1.496520E+02  3.447192E-17  3.194405E-01    1 
 5.000000E-01  5.000000E-01  1.265000E+02  3.648029E+01  1.541241E+07  1.542034E+07  9.833080E-01  1.669195E-02  0.000000E+00  1.024000E+03  1.495851E+02  3.447767E-17  3.196959E-01    1 
 5.000000E-01  5.000000E-01  1.275000E+02  3.643963E+01  1.540236E+07  1.541032E+07  9.832438E-01  1.675615E-02  0.000000E+00  1.024000E+03  1.495182E+02  3.448342E-17  3.199516E-01    1 
 5.000000E-01  5.000000E-01  1.285000E+02  3.639897E+01  1.539232E+07  1.540029E+07  9.831798E-01  1.682021E-02  0.000000E+00  1.024000E+03  1.494513E+02  3.448917E-17  3.202074E-01    1 
 5.000000E-01  5.000000E-01  1.295000E+02  3.635831E+01  1.538227E+07  1.539027E+07  9.831159E-01  1.688413E-02  0.000000E+00  1.024000E+03  1.493843E+02  3.449493E-17  3.204635E-01    1 
 5.000000E-01  5.000000E-01  1.305000E+02  3.631766E+01  1.537223E+07  1.538025E+07  9.830521E-01  1.694795E-02  0.000000E+00  1.024000E+03  1.493173E+02  3.450069E-17  3.207197E-01    1 
 5.000000E-01  5.000000E-01  1.315000E+02  3.627701E+01  1.536218E+07  1.537022E+07  9.829883E-01  1.701166E-02  0.000000E+00  1.024000E+03  1.492502E+02  3.450646E-17  3.209762E-01    1 
 5.000000E-01  5.000000E-01  1.325000E+02  3.623637E+01  1.535214E+07  1.536020E+07  9.829247E-01  1.707528E-02  0.000000E+00  1.024000E+03  1.491832E+02  3.451224E-17  3.212329E-01    1 
 5.000000E-01  5.000000E-01  1.335000E+02  3.619572E+01  1.534209E+07  1.535017E+07  9.828612E-01  1.713882E-02  0.000000E+00  1.024000E+03  1.491161E+02  3.451802E-17  3.214898E-01    1 
 5.000000E-01  5.000000E-01  1.345000E+02  3.615509E+01  1.533205E+07  1.534015E+07  9.827977E-01  1.720230E-02  0.000000E+00  1.024000E+03  1.490490E+02  3.452381E-17  3.217469E-01    1 
 5.000000E-01  5.000000E-01  1.355000E+02  3.611445E+01  1.532200E+07  1.533013E+07  9.827343E-01  1.726573E-02  0.000000E+00  1.024000E+03  1.489818E+02  3.452960E-17  3.220042E-01    1 
 5.000000E-01  5.000000E-01  1.365000E+02  3.607382E+01  1.531196E+07  1.532010E+07  9.826709E-01  1.732911E-02  0.000000E+00  1.024000E+03  1.489146E+02  3.453540E-17  3.222617E-01    1 
 5.000000E-01  5.000000E-01  1.375000E+02  3.603319E+01  1.530191E+07  1.531008E+07  9.826075E-01  1.739245E-02  0.000000E+00  1.024000E+03  1.488474E+02  3.454121E-17  3.225194E-01    1 
 5.000000E-01  5.000000E-01  1.385000E+02  3.599256E+01  1.529187E+07  1.530005E+07  9.825442E-01  1.745577E-02  0.000000E+00  1.024000E+03  1.487802E+02  3.454701E-17  3.227773E-01    1 
 5.000000E-01  5.000000E-01  1.395000E+02  3.595194E+01  1.528182E+07  1.529003E+07  9.824809E-01  1.751908E-02  0.000000E+00  1.024000E+03  1.487129E+02  3.455283E-17  3.230354E-01    1 
 5.000000E-01  5.000000E-01  1.405000E+02  3.591132E+01  1.527177E+07  1.528000E+07  9.824176E-01  1.758238E-02  0.000000E+00  1.024000E+03  1.486456E+02  3.455865E-17  3.232937E-01    1 
 5.000000E-01  5.000000E-01  1.415000E+02  3.587070E+01  1.526173E+07  1.526998E+07  9.823543E-01  1.764568E-02  0.000000E+00  1.024000E+03  1.485782E+02  3.456448E-17  3.235523E-01    1 
 5.000000E-01  5.000000E-01  1.425000E+02  3.583009E+01  1.525168E+07  1.525995E+07  9.822910E-01  1.770898E-02  0.000000E+00  1.024000E+03  1.485109E+02  3.457031E-17  3.238110E-01    1 
 5.000000E-01  5.000000E-01  1.435000E+02  3.578947E+01  1.524164E+07  1.524992E+07  9.822277E-01  1.777231E-02  0.000000E+00  1.024000E+03  1.484435E+02  3.457615E-17  3.240699E-01    1 
 5.000000E-01  5.000000E-01  1.445000E+02  3.574887E+01  1.523159E+07  1.523990E+07  9.821643E-01  1.783565E-02  0.000000E+00  1.024000E+03  1.483761E+02  3.458199E-17  3.243291E-01    1 
 5.000000E-01  5.000000E-01  1.455000E+02  3.570826E+01  1.522154E+07  1.522987E+07  9.821010E-01  1.789902E-02  0.000000E+00  1.024000E+03  1.483086E+02  3.458784E-17  3.245885E-01    1 
 5.000000E-01  5.000000E-01  1.465000E+02  3.566766E+01  1.521150E+07  1.521985E+07  9.820376E-01  1.796243E-02  0.000000E+00  1.024000E+03  1.482411E+02  3.459370E-17  3.248480E-01    1 
 5.000000E-01  5.000000E-01  1.475000E+02  3.562706E+01  1.520145E+07  1.520982E+07  9.819741E-01  1.802587E-02  0.000000E+00  1.024000E+03  1.481736E+02  3.459956E-17  3.251078E-01    1 
 5.000000E-01  5.000000E-01  1.485000E+02  3.558647E+01  1.519140E+07  1.519979E+07  9.819106E-01  1.808936E-02  0.000000E+00  1.024000E+03  1.481061E+02  3.460542E-17  3.253678E-01    1 
 5.000000E-01  5.000000E-01  1.495000E+02  3.554588E+01  1.518136E+07  1.518977E+07  9.818471E-01  1.815289E-02  0.000000E+00  1.024000E+03  1.480385E+02  3.461129E-17  3.256280E-01    1 
 5.000000E-01  5.000000E-01  1.505000E+02  3.550529E+01  1.517131E+07  1.517974E+07  9.817835E-01  1.821647E-02  0.000000E+00  1.024000E+03  1.479709E+02  3.461717E-17  3.258884E-01    1 
 5.000000E-01  5.000000E-01  1.515000E+02  3.546470E+01  1.516126E+07  1.516971E+07  9.817199E-01  1.828011E-02  0.000000E+00  1.024000E+03  1.479032E+02  3.462306E-17  3.261490E-01    1 
 5.000000E-01  5.000000E-01  1.525000E+02  3.542412E+01  1.515121E+07  1.515969E+07  9.816562E-01  1.834381E-02  0.000000E+00  1.024000E+03  1.478356E+02  3.462894E-17  3.264098E-01    1 
 5.000000E-01  5.000000E-01  1.535000E+02  3.538354E+01  1.514117E+07  1.514966E+07  9.815924E-01  1.840756E-02  0.000000E+00  1.024000E+03  1.477679E+02  3.463484E-17  3.266708E-01    1 
 5.000000E-01  5.000000E-01  1.545000E+02  3.534297E+01  1.513112E+07  1.513963E+07  9.815286E-01  1.847138E-02  0.000000E+00  1.024000E+03  1.477002E+02  3.464074E-17  3.269320E-01    1 
 5.000000E-01  5.000000E-01  1.555000E+02  3.530239E+01  1.512107E+07  1.512960E+07  9.814647E-01  1.853526E-02  0.000000E+00  1.024000E+03  1.476324E+02  3.464665E-17  3.271935E-01    1 
 5.000000E-01  5.000000E-01  1.565000E+02  3.526182E+01  1.511102E+07  1.511958E+07  9.814008E-01  1.859922E-02  0.000000E+00  1.024000E+03  1.475646E+02  3.465256E-17  3.274551E-01    1 