TITLE = "  1.04300E+05 [y]"
VARIABLES="X [m]","Y [m]","Z [m]","Temperature [C]","Liquid Pressure [Pa]","Gas Pressure [Pa]","Liquid Saturation","Gas Saturation","Hydrate Saturation","Liquid Density [kg/m^3]","Gas Density [kg/m^3]","Permeability X [m^2]","Porosity","Material ID"
ZONE T="1.04300E+05", STRANDID=1, SOLUTIONTIME=1.04300E+05, I=1, J=1, K=1000, DATAPACKING=POINT
 5.000000E-01  5.000000E-01  5.000000E-01  4.134633E+01  1.676314E+07  1.676887E+07  9.889941E-01  1.100594E-02  0.000000E+00  1.024000E+03  1.586075E+02  3.379583E-17  2.890648E-01    1 
 5.000000E-01  5.000000E-01  1.500000E+00  4.130527E+01  1.675310E+07  1.675887E+07  9.889151E-01  1.108485E-02  0.000000E+00  1.024000E+03  1.585444E+02  3.380093E-17  2.892959E-01    1 
 5.000000E-01  5.000000E-01  2.500000E+00  4.126420E+01  1.674307E+07  1.674886E+07  9.888441E-01  1.115588E-02  0.000000E+00  1.024000E+03  1.584812E+02  3.380603E-17  2.895273E-01    1 
 5.000000E-01  5.000000E-01  3.500000E+00  4.122314E+01  1.673303E+07  1.673886E+07  9.887736E-01  1.122635E-02  0.000000E+00  1.024000E+03  1.584180E+02  3.381113E-17  2.897588E-01    1 
 5.000000E-01  5.000000E-01  4.500000E+00  4.118208E+01  1.672300E+07  1.672885E+07  9.887037E-01  1.129627E-02  0.000000E+00  1.024000E+03  1.583548E+02  3.381624E-17  2.899905E-01    1 
 5.000000E-01  5.000000E-01  5.500000E+00  4.114102E+01  1.671296E+07  1.671885E+07  9.886344E-01  1.136562E-02  0.000000E+00  1.024000E+03  1.582916E+02  3.382135E-17  2.902224E-01    1 
 5.000000E-01  5.000000E-01  6.500000E+00  4.109997E+01  1.670292E+07  1.670884E+07  9.885656E-01  1.143437E-02  0.000000E+00  1.024000E+03  1.582283E+02  3.382647E-17  2.904545E-01    1 
 5.000000E-01  5.000000E-01  7.500000E+00  4.105892E+01  1.669289E+07  1.669883E+07  9.884975E-01  1.150253E-02  0.000000E+00  1.024000E+03  1.581650E+02  3.383160E-17  2.906868E-01    1 
 5.000000E-01  5.000000E-01  8.500000E+00  4.101787E+01  1.668285E+07  1.668883E+07  9.884299E-01  1.157011E-02  0.000000E+00  1.024000E+03  1.581017E+02  3.383673E-17  2.909192E-01    1 
 5.000000E-01  5.000000E-01  9.500000E+00  4.097682E+01  1.667282E+07  1.667882E+07  9.883629E-01  1.163709E-02  0.000000E+00  1.024000E+03  1.580383E+02  3.384186E-17  2.911519E-01    1 
 5.000000E-01  5.000000E-01  1.050000E+01  4.093578E+01  1.666278E+07  1.666881E+07  9.882965E-01  1.170349E-02  0.000000E+00  1.024000E+03  1.579749E+02  3.384700E-17  2.913847E-01    1 
 5.000000E-01  5.000000E-01  1.150000E+01  4.089474E+01  1.665275E+07  1.665880E+07  9.882307E-01  1.176932E-02  0.000000E+00  1.024000E+03  1.579115E+02  3.385214E-17  2.916177E-01    1 
 5.000000E-01  5.000000E-01  1.250000E+01  4.085370E+01  1.664271E+07  1.664880E+07  9.881654E-01  1.183460E-02  0.000000E+00  1.024000E+03  1.578480E+02  3.385729E-17  2.918509E-01    1 
 5.000000E-01  5.000000E-01  1.350000E+01  4.081267E+01  1.663268E+07  1.663879E+07  9.881007E-01  1.189934E-02  0.000000E+00  1.024000E+03  1.577845E+02  3.386244E-17  2.920843E-01    1 
 5.000000E-01  5.000000E-01  1.450000E+01  4.077163E+01  1.662264E+07  1.662878E+07  9.880364E-01  1.196356E-02  0.000000E+00  1.024000E+03  1.577210E+02  3.386760E-17  2.923179E-01    1 
 5.000000E-01  5.000000E-01  1.550000E+01  4.073061E+01  1.661261E+07  1.661877E+07  9.879727E-01  1.202730E-02  0.000000E+00  1.024000E+03  1.576575E+02  3.387276E-17  2.925516E-01    1 
 5.000000E-01  5.000000E-01  1.650000E+01  4.068958E+01  1.660257E+07  1.660876E+07  9.879094E-01  1.209057E-02  0.000000E+00  1.024000E+03  1.575939E+02  3.387793E-17  2.927856E-01    1 
 5.000000E-01  5.000000E-01  1.750000E+01  4.064856E+01  1.659254E+07  1.659875E+07  9.878466E-01  1.215340E-02  0.000000E+00  1.024000E+03  1.575303E+02  3.388310E-17  2.930197E-01    1 
 5.000000E-01  5.000000E-01  1.850000E+01  4.060754E+01  1.658250E+07  1.658874E+07  9.877842E-01  1.221583E-02  0.000000E+00  1.024000E+03  1.574667E+02  3.388828E-17  2.932541E-01    1 
 5.000000E-01  5.000000E-01  1.950000E+01  4.056652E+01  1.657246E+07  1.657873E+07  9.877221E-01  1.227789E-02  0.000000E+00  1.024000E+03  1.574030E+02  3.389346E-17  2.934886E-01    1 
 5.000000E-01  5.000000E-01  2.050000E+01  4.052550E+01  1.656243E+07  1.656872E+07  9.876604E-01  1.233960E-02  0.000000E+00  1.024000E+03  1.573393E+02  3.389865E-17  2.937233E-01    1 
 5.000000E-01  5.000000E-01  2.150000E+01  4.048449E+01  1.655239E+07  1.655871E+07  9.875990E-01  1.240100E-02  0.000000E+00  1.024000E+03  1.572756E+02  3.390384E-17  2.939581E-01    1 
 5.000000E-01  5.000000E-01  2.250000E+01  4.044348E+01  1.654236E+07  1.654870E+07  9.875379E-01  1.246212E-02  0.000000E+00  1.024000E+03  1.572119E+02  3.390904E-17  2.941932E-01    1 
 5.000000E-01  5.000000E-01  2.350000E+01  4.040248E+01  1.653232E+07  1.653869E+07  9.874770E-01  1.252299E-02  0.000000E+00  1.024000E+03  1.571481E+02  3.391424E-17  2.944285E-01    1 
 5.000000E-01  5.000000E-01  2.450000E+01  4.036148E+01  1.652229E+07  1.652868E+07  9.874164E-01  1.258364E-02  0.000000E+00  1.024000E+03  1.570843E+02  3.391945E-17  2.946639E-01    1 
 5.000000E-01  5.000000E-01  2.550000E+01  4.032048E+01  1.651225E+07  1.651867E+07  9.873559E-01  1.264412E-02  0.000000E+00  1.024000E+03  1.570205E+02  3.392466E-17  2.948996E-01    1 
 5.000000E-01  5.000000E-01  2.650000E+01  4.027948E+01  1.650221E+07  1.650866E+07  9.872956E-01  1.270444E-02  0.000000E+00  1.024000E+03  1.569566E+02  3.392988E-17  2.951354E-01    1 
 5.000000E-01  5.000000E-01  2.750000E+01  4.023849E+01  1.649218E+07  1.649865E+07  9.872354E-01  1.276463E-02  0.000000E+00  1.024000E+03  1.568928E+02  3.393510E-17  2.953714E-01    1 
 5.000000E-01  5.000000E-01  2.850000E+01  4.019749E+01  1.648214E+07  1.648864E+07  9.871753E-01  1.282474E-02  0.000000E+00  1.024000E+03  1.568289E+02  3.394033E-17  2.956076E-01    1 
 5.000000E-01  5.000000E-01  2.950000E+01  4.015651E+01  1.647211E+07  1.647862E+07  9.871152E-01  1.288479E-02  0.000000E+00  1.024000E+03  1.567649E+02  3.394556E-17  2.958440E-01    1 
 5.000000E-01  5.000000E-01  3.050000E+01  4.011552E+01  1.646207E+07  1.646861E+07  9.870552E-01  1.294481E-02  0.000000E+00  1.024000E+03  1.567010E+02  3.395080E-17  2.960806E-01    1 
 5.000000E-01  5.000000E-01  3.150000E+01  4.007454E+01  1.645204E+07  1.645860E+07  9.869952E-01  1.300482E-02  0.000000E+00  1.024000E+03  1.566370E+02  3.395604E-17  2.963173E-01    1 
 5.000000E-01  5.000000E-01  3.250000E+01  4.003356E+01  1.644200E+07  1.644859E+07  9.869351E-01  1.306486E-02  0.000000E+00  1.024000E+03  1.565729E+02  3.396129E-17  2.965543E-01    1 
 5.000000E-01  5.000000E-01  3.350000E+01  3.999258E+01  1.643197E+07  1.643858E+07  9.868750E-01  1.312496E-02  0.000000E+00  1.024000E+03  1.565089E+02  3.396654E-17  2.967915E-01    1 
 5.000000E-01  5.000000E-01  3.450000E+01  3.995161E+01  1.642193E+07  1.642857E+07  9.868149E-01  1.318514E-02  0.000000E+00  1.024000E+03  1.564448E+02  3.397180E-17  2.970288E-01    1 
 5.000000E-01  5.000000E-01  3.550000E+01  3.991064E+01  1.641189E+07  1.641855E+07  9.867546E-01  1.324543E-02  0.000000E+00  1.024000E+03  1.563807E+02  3.397706E-17  2.972663E-01    1 
 5.000000E-01  5.000000E-01  3.650000E+01  3.986967E+01  1.640186E+07  1.640854E+07  9.866941E-01  1.330586E-02  0.000000E+00  1.024000E+03  1.563166E+02  3.398233E-17  2.975040E-01    1 
 5.000000E-01  5.000000E-01  3.750000E+01  3.982870E+01  1.639182E+07  1.639853E+07  9.866336E-01  1.336645E-02  0.000000E+00  1.024000E+03  1.562525E+02  3.398760E-17  2.977419E-01    1 
 5.000000E-01  5.000000E-01  3.850000E+01  3.978774E+01  1.638179E+07  1.638852E+07  9.865728E-01  1.342723E-02  0.000000E+00  1.024000E+03  1.561883E+02  3.399288E-17  2.979800E-01    1 
 5.000000E-01  5.000000E-01  3.950000E+01  3.974678E+01  1.637175E+07  1.637851E+07  9.865118E-01  1.348822E-02  0.000000E+00  1.024000E+03  1.561241E+02  3.399816E-17  2.982183E-01    1 
 5.000000E-01  5.000000E-01  4.050000E+01  3.970583E+01  1.636171E+07  1.636849E+07  9.864506E-01  1.354945E-02  0.000000E+00  1.024000E+03  1.560598E+02  3.400345E-17  2.984568E-01    1 
 5.000000E-01  5.000000E-01  4.150000E+01  3.966488E+01  1.635168E+07  1.635848E+07  9.863891E-01  1.361094E-02  0.000000E+00  1.024000E+03  1.559956E+02  3.400874E-17  2.986955E-01    1 
 5.000000E-01  5.000000E-01  4.250000E+01  3.962392E+01  1.634164E+07  1.634847E+07  9.863273E-01  1.367271E-02  0.000000E+00  1.024000E+03  1.559313E+02  3.401404E-17  2.989343E-01    1 
 5.000000E-01  5.000000E-01  4.350000E+01  3.958298E+01  1.633161E+07  1.633846E+07  9.862652E-01  1.373479E-02  0.000000E+00  1.024000E+03  1.558670E+02  3.401934E-17  2.991734E-01    1 
 5.000000E-01  5.000000E-01  4.450000E+01  3.954203E+01  1.632157E+07  1.632845E+07  9.862028E-01  1.379719E-02  0.000000E+00  1.024000E+03  1.558026E+02  3.402465E-17  2.994126E-01    1 
 5.000000E-01  5.000000E-01  4.550000E+01  3.950109E+01  1.631154E+07  1.631844E+07  9.861401E-01  1.385994E-02  0.000000E+00  1.024000E+03  1.557383E+02  3.402996E-17  2.996521E-01    1 
 5.000000E-01  5.000000E-01  4.650000E+01  3.946015E+01  1.630150E+07  1.630842E+07  9.860769E-01  1.392306E-02  0.000000E+00  1.024000E+03  1.556739E+02  3.403528E-17  2.998917E-01    1 
 5.000000E-01  5.000000E-01  4.750000E+01  3.941922E+01  1.629146E+07  1.629841E+07  9.860134E-01  1.398655E-02  0.000000E+00  1.024000E+03  1.556095E+02  3.404060E-17  3.001315E-01    1 
 5.000000E-01  5.000000E-01  4.850000E+01  3.937829E+01  1.628143E+07  1.628840E+07  9.859496E-01  1.405044E-02  0.000000E+00  1.024000E+03  1.555450E+02  3.404593E-17  3.003715E-01    1 
 5.000000E-01  5.000000E-01  4.950000E+01  3.933736E+01  1.627139E+07  1.627839E+07  9.858853E-01  1.411474E-02  0.000000E+00  1.024000E+03  1.554805E+02  3.405126E-17  3.006117E-01    1 
 5.000000E-01  5.000000E-01  5.050000E+01  3.929643E+01  1.626136E+07  1.626838E+07  9.858205E-01  1.417946E-02  0.000000E+00  1.024000E+03  1.554160E+02  3.405660E-17  3.008521E-01    1 
 5.000000E-01  5.000000E-01  5.150000E+01  3.925551E+01  1.625132E+07  1.625837E+07  9.857554E-01  1.424462E-02  0.000000E+00  1.024000E+03  1.553515E+02  3.406195E-17  3.010927E-01    1 
 5.000000E-01  5.000000E-01  5.250000E+01  3.921459E+01  1.624128E+07  1.624836E+07  9.856898E-01  1.431020E-02  0.000000E+00  1.024000E+03  1.552870E+02  3.406729E-17  3.013335E-01    1 
 5.000000E-01  5.000000E-01  5.350000E+01  3.917367E+01  1.623125E+07  1.623834E+07  9.856238E-01  1.437624E-02  0.000000E+00  1.024000E+03  1.552224E+02  3.407265E-17  3.015744E-01    1 
 5.000000E-01  5.000000E-01  5.450000E+01  3.913275E+01  1.622121E+07  1.622833E+07  9.855573E-01  1.444271E-02  0.000000E+00  1.024000E+03  1.551578E+02  3.407801E-17  3.018156E-01    1 
 5.000000E-01  5.000000E-01  5.550000E+01  3.909184E+01  1.621118E+07  1.621832E+07  9.854904E-01  1.450963E-02  0.000000E+00  1.024000E+03  1.550931E+02  3.408337E-17  3.020570E-01    1 
 5.000000E-01  5.000000E-01  5.650000E+01  3.905093E+01  1.620114E+07  1.620831E+07  9.854230E-01  1.457699E-02  0.000000E+00  1.024000E+03  1.550285E+02  3.408874E-17  3.022985E-01    1 
 5.000000E-01  5.000000E-01  5.750000E+01  3.901003E+01  1.619110E+07  1.619830E+07  9.853552E-01  1.464479E-02  0.000000E+00  1.024000E+03  1.549638E+02  3.409411E-17  3.025403E-01    1 
 5.000000E-01  5.000000E-01  5.850000E+01  3.896912E+01  1.618107E+07  1.618829E+07  9.852870E-01  1.471301E-02  0.000000E+00  1.024000E+03  1.548991E+02  3.409949E-17  3.027822E-01    1 
 5.000000E-01  5.000000E-01  5.950000E+01  3.892822E+01  1.617103E+07  1.617828E+07  9.852183E-01  1.478165E-02  0.000000E+00  1.024000E+03  1.548343E+02  3.410488E-17  3.030243E-01    1 
 5.000000E-01  5.000000E-01  6.050000E+01  3.888733E+01  1.616099E+07  1.616827E+07  9.851493E-01  1.485069E-02  0.000000E+00  1.024000E+03  1.547696E+02  3.411027E-17  3.032666E-01    1 
 5.000000E-01  5.000000E-01  6.150000E+01  3.884643E+01  1.615096E+07  1.615826E+07  9.850799E-01  1.492011E-02  0.000000E+00  1.024000E+03  1.547048E+02  3.411566E-17  3.035092E-01    1 
 5.000000E-01  5.000000E-01  6.250000E+01  3.880554E+01  1.614092E+07  1.614825E+07  9.850101E-01  1.498989E-02  0.000000E+00  1.024000E+03  1.546400E+02  3.412106E-17  3.037519E-01    1 
 5.000000E-01  5.000000E-01  6.350000E+01  3.876465E+01  1.613089E+07  1.613824E+07  9.849400E-01  1.506001E-02  0.000000E+00  1.024000E+03  1.545751E+02  3.412647E-17  3.039948E-01    1 
 5.000000E-01  5.000000E-01  6.450000E+01  3.872377E+01  1.612085E+07  1.612823E+07  9.848696E-01  1.513044E-02  0.000000E+00  1.024000E+03  1.545103E+02  3.413188E-17  3.042379E-01    1 
 5.000000E-01  5.000000E-01  6.550000E+01  3.868289E+01  1.611081E+07  1.611822E+07  9.847988E-01  1.520116E-02  0.000000E+00  1.024000E+03  1.544454E+02  3.413729E-17  3.044812E-01    1 
 5.000000E-01  5.000000E-01  6.650000E+01  3.864201E+01  1.610078E+07  1.610821E+07  9.847279E-01  1.527213E-02  0.000000E+00  1.024000E+03  1.543804E+02  3.414271E-17  3.047247E-01    1 
 5.000000E-01  5.000000E-01  6.750000E+01  3.860113E+01  1.609074E+07  1.609820E+07  9.846567E-01  1.534333E-02  0.000000E+00  1.024000E+03  1.543155E+02  3.414814E-17  3.049683E-01    1 
 5.000000E-01  5.000000E-01  6.850000E+01  3.856026E+01  1.608070E+07  1.608819E+07  9.845853E-01  1.541472E-02  0.000000E+00  1.024000E+03  1.542505E+02  3.415357E-17  3.052122E-01    1 
 5.000000E-01  5.000000E-01  6.950000E+01  3.851939E+01  1.607067E+07  1.607818E+07  9.845137E-01  1.548626E-02  0.000000E+00  1.024000E+03  1.541855E+02  3.415901E-17  3.054563E-01    1 
 5.000000E-01  5.000000E-01  7.050000E+01  3.847852E+01  1.606063E+07  1.606817E+07  9.844421E-01  1.555792E-02  0.000000E+00  1.024000E+03  1.541204E+02  3.416445E-17  3.057006E-01    1 
 5.000000E-01  5.000000E-01  7.150000E+01  3.843765E+01  1.605060E+07  1.605815E+07  9.843703E-01  1.562967E-02  0.000000E+00  1.024000E+03  1.540554E+02  3.416989E-17  3.059450E-01    1 
 5.000000E-01  5.000000E-01  7.250000E+01  3.839679E+01  1.604056E+07  1.604814E+07  9.842985E-01  1.570146E-02  0.000000E+00  1.024000E+03  1.539903E+02  3.417535E-17  3.061897E-01    1 
 5.000000E-01  5.000000E-01  7.350000E+01  3.835593E+01  1.603052E+07  1.603813E+07  9.842267E-01  1.577327E-02  0.000000E+00  1.024000E+03  1.539252E+02  3.418080E-17  3.064345E-01    1 
 5.000000E-01  5.000000E-01  7.450000E+01  3.831508E+01  1.602049E+07  1.602812E+07  9.841549E-01  1.584506E-02  0.000000E+00  1.024000E+03  1.538600E+02  3.418627E-17  3.066796E-01    1 
 5.000000E-01  5.000000E-01  7.550000E+01  3.827423E+01  1.601045E+07  1.601811E+07  9.840832E-01  1.591679E-02  0.000000E+00  1.024000E+03  1.537948E+02  3.419173E-17  3.069248E-01    1 
 5.000000E-01  5.000000E-01  7.650000E+01  3.823338E+01  1.600041E+07  1.600810E+07  9.840116E-01  1.598843E-02  0.000000E+00  1.024000E+03  1.537296E+02  3.419721E-17  3.071703E-01    1 
 5.000000E-01  5.000000E-01  7.750000E+01  3.819253E+01  1.599038E+07  1.599809E+07  9.839401E-01  1.605995E-02  0.000000E+00  1.024000E+03  1.536644E+02  3.420268E-17  3.074159E-01    1 
 5.000000E-01  5.000000E-01  7.850000E+01  3.815169E+01  1.598034E+07  1.598808E+07  9.838687E-01  1.613132E-02  0.000000E+00  1.024000E+03  1.535991E+02  3.420817E-17  3.076617E-01    1 
 5.000000E-01  5.000000E-01  7.950000E+01  3.811084E+01  1.597030E+07  1.597807E+07  9.837975E-01  1.620251E-02  0.000000E+00  1.024000E+03  1.535338E+02  3.421366E-17  3.079078E-01    1 
 5.000000E-01  5.000000E-01  8.050000E+01  3.807001E+01  1.596027E+07  1.596805E+07  9.837265E-01  1.627351E-02  0.000000E+00  1.024000E+03  1.534685E+02  3.421915E-17  3.081540E-01    1 
 5.000000E-01  5.000000E-01  8.150000E+01  3.802917E+01  1.595023E+07  1.595804E+07  9.836557E-01  1.634428E-02  0.000000E+00  1.024000E+03  1.534032E+02  3.422465E-17  3.084004E-01    1 
 5.000000E-01  5.000000E-01  8.250000E+01  3.798834E+01  1.594019E+07  1.594803E+07  9.835852E-01  1.641481E-02  0.000000E+00  1.024000E+03  1.533378E+02  3.423015E-17  3.086470E-01    1 
 5.000000E-01  5.000000E-01  8.350000E+01  3.794751E+01  1.593016E+07  1.593802E+07  9.835149E-01  1.648508E-02  0.000000E+00  1.024000E+03  1.532724E+02  3.423566E-17  3.088939E-01    1 
 5.000000E-01  5.000000E-01  8.450000E+01  3.790669E+01  1.592012E+07  1.592800E+07  9.834449E-01  1.655508E-02  0.000000E+00  1.024000E+03  1.532069E+02  3.424118E-17  3.091409E-01    1 
 5.000000E-01  5.000000E-01  8.550000E+01  3.786586E+01  1.591008E+07  1.591799E+07  9.833752E-01  1.662480E-02  0.000000E+00  1.024000E+03  1.531415E+02  3.424670E-17  3.093881E-01    1 
 5.000000E-01  5.000000E-01  8.650000E+01  3.782504E+01  1.590005E+07  1.590798E+07  9.833058E-01  1.669423E-02  0.000000E+00  1.024000E+03  1.530760E+02  3.425222E-17  3.096355E-01    1 
 5.000000E-01  5.000000E-01  8.750000E+01  3.778423E+01  1.589001E+07  1.589797E+07  9.832366E-01  1.676335E-02  0.000000E+00  1.024000E+03  1.530104E+02  3.425775E-17  3.098831E-01    1 
 5.000000E-01  5.000000E-01  8.850000E+01  3.774341E+01  1.587997E+07  1.588795E+07  9.831678E-01  1.683218E-02  0.000000E+00  1.024000E+03  1.529449E+02  3.426329E-17  3.101309E-01    1 
 5.000000E-01  5.000000E-01  8.950000E+01  3.770260E+01  1.586994E+07  1.587794E+07  9.830993E-01  1.690071E-02  0.000000E+00  1.024000E+03  1.528793E+02  3.426883E-17  3.103789E-01    1 
 5.000000E-01  5.000000E-01  9.050000E+01  3.766180E+01  1.585990E+07  1.586793E+07  9.830311E-01  1.696894E-02  0.000000E+00  1.024000E+03  1.528137E+02  3.427438E-17  3.106271E-01    1 
 5.000000E-01  5.000000E-01  9.150000E+01  3.762099E+01  1.584986E+07  1.585791E+07  9.829631E-01  1.703687E-02  0.000000E+00  1.024000E+03  1.527480E+02  3.427993E-17  3.108755E-01    1 
 5.000000E-01  5.000000E-01  9.250000E+01  3.758019E+01  1.583983E+07  1.584790E+07  9.828955E-01  1.710450E-02  0.000000E+00  1.024000E+03  1.526823E+02  3.428549E-17  3.111241E-01    1 
 5.000000E-01  5.000000E-01  9.350000E+01  3.753939E+01  1.582979E+07  1.583788E+07  9.828281E-01  1.717186E-02  0.000000E+00  1.024000E+03  1.526166E+02  3.429105E-17  3.113729E-01    1 
 5.000000E-01  5.000000E-01  9.450000E+01  3.749860E+01  1.581975E+07  1.582787E+07  9.827611E-01  1.723894E-02  0.000000E+00  1.024000E+03  1.525509E+02  3.429662E-17  3.116219E-01    1 
 5.000000E-01  5.000000E-01  9.550000E+01  3.745780E+01  1.580972E+07  1.581785E+07  9.826943E-01  1.730575E-02  0.000000E+00  1.024000E+03  1.524852E+02  3.430219E-17  3.118711E-01    1 
 5.000000E-01  5.000000E-01  9.650000E+01  3.741702E+01  1.579968E+07  1.580784E+07  9.826277E-01  1.737230E-02  0.000000E+00  1.024000E+03  1.524194E+02  3.430777E-17  3.121205E-01    1 
 5.000000E-01  5.000000E-01  9.750000E+01  3.737623E+01  1.578964E+07  1.579782E+07  9.825614E-01  1.743861E-02  0.000000E+00  1.024000E+03  1.523535E+02  3.431336E-17  3.123701E-01    1 
 5.000000E-01  5.000000E-01  9.850000E+01  3.733545E+01  1.577961E+07  1.578781E+07  9.824953E-01  1.750469E-02  0.000000E+00  1.024000E+03  1.522877E+02  3.431895E-17  3.126199E-01    1 
 5.000000E-01  5.000000E-01  9.950000E+01  3.729467E+01  1.576957E+07  1.577779E+07  9.824295E-01  1.757055E-02  0.000000E+00  1.024000E+03  1.522218E+02  3.432454E-17  3.128699E-01    1 
 5.000000E-01  5.000000E-01  1.005000E+02  3.725389E+01  1.575953E+07  1.576778E+07  9.823638E-01  1.763620E-02  0.000000E+00  1.024000E+03  1.521559E+02  3.433014E-17  3.131201E-01    1 
 5.000000E-01  5.000000E-01  1.015000E+02  3.721312E+01  1.574950E+07  1.575776E+07  9.822983E-01  1.770165E-02  0.000000E+00  1.024000E+03  1.520900E+02  3.433575E-17  3.133705E-01    1 
 5.000000E-01  5.000000E-01  1.025000E+02  3.717235E+01  1.573946E+07  1.574775E+07  9.822331E-01  1.776693E-02  0.000000E+00  1.024000E+03  1.520240E+02  3.434136E-17  3.136211E-01    1 
 5.000000E-01  5.000000E-01  1.035000E+02  3.713158E+01  1.572942E+07  1.573773E+07  9.821680E-01  1.783203E-02  0.000000E+00  1.024000E+03  1.519580E+02  3.434698E-17  3.138719E-01    1 
 5.000000E-01  5.000000E-01  1.045000E+02  3.709081E+01  1.571939E+07  1.572772E+07  9.821030E-01  1.789698E-02  0.000000E+00  1.024000E+03  1.518920E+02  3.435260E-17  3.141229E-01    1 
 5.000000E-01  5.000000E-01  1.055000E+02  3.705005E+01  1.570935E+07  1.571770E+07  9.820382E-01  1.796179E-02  0.000000E+00  1.024000E+03  1.518259E+02  3.435823E-17  3.143741E-01    1 
 5.000000E-01  5.000000E-01  1.065000E+02  3.700929E+01  1.569931E+07  1.570768E+07  9.819735E-01  1.802647E-02  0.000000E+00  1.024000E+03  1.517598E+02  3.436386E-17  3.146255E-01    1 
 5.000000E-01  5.000000E-01  1.075000E+02  3.696854E+01  1.568928E+07  1.569767E+07  9.819090E-01  1.809103E-02  0.000000E+00  1.024000E+03  1.516937E+02  3.436950E-17  3.148771E-01    1 
 5.000000E-01  5.000000E-01  1.085000E+02  3.692779E+01  1.567924E+07  1.568765E+07  9.818445E-01  1.815549E-02  0.000000E+00  1.024000E+03  1.516276E+02  3.437514E-17  3.151289E-01    1 
 5.000000E-01  5.000000E-01  1.095000E+02  3.688704E+01  1.566920E+07  1.567763E+07  9.817801E-01  1.821986E-02  0.000000E+00  1.024000E+03  1.515614E+02  3.438079E-17  3.153809E-01    1 
 5.000000E-01  5.000000E-01  1.105000E+02  3.684629E+01  1.565916E+07  1.566762E+07  9.817159E-01  1.828414E-02  0.000000E+00  1.024000E+03  1.514952E+02  3.438645E-17  3.156331E-01    1 
 5.000000E-01  5.000000E-01  1.115000E+02  3.680555E+01  1.564913E+07  1.565760E+07  9.816516E-01  1.834835E-02  0.000000E+00  1.024000E+03  1.514290E+02  3.439211E-17  3.158855E-01    1 
 5.000000E-01  5.000000E-01  1.125000E+02  3.676481E+01  1.563909E+07  1.564758E+07  9.815875E-01  1.841250E-02  0.000000E+00  1.024000E+03  1.513627E+02  3.439777E-17  3.161381E-01    1 
 5.000000E-01  5.000000E-01  1.135000E+02  3.672407E+01  1.562905E+07  1.563757E+07  9.815234E-01  1.847660E-02  0.000000E+00  1.024000E+03  1.512965E+02  3.440344E-17  3.163909E-01    1 
 5.000000E-01  5.000000E-01  1.145000E+02  3.668334E+01  1.561902E+07  1.562755E+07  9.814593E-01  1.854066E-02  0.000000E+00  1.024000E+03  1.512301E+02  3.440912E-17  3.166439E-01    1 
 5.000000E-01  5.000000E-01  1.155000E+02  3.664261E+01  1.560898E+07  1.561753E+07  9.813953E-01  1.860469E-02  0.000000E+00  1.024000E+03  1.511638E+02  3.441480E-17  3.168971E-01    1 
 5.000000E-01  5.000000E-01  1.165000E+02  3.660188E+01  1.559894E+07  1.560751E+07  9.813313E-01  1.866870E-02  0.000000E+00  1.024000E+03  1.510974E+02  3.442049E-17  3.171506E-01    1 
 5.000000E-01  5.000000E-01  1.175000E+02  3.656116E+01  1.558890E+07  1.559750E+07  9.812673E-01  1.873269E-02  0.000000E+00  1.024000E+03  1.510310E+02  3.442618E-17  3.174042E-01    1 
 5.000000E-01  5.000000E-01  1.185000E+02  3.652044E+01  1.557887E+07  1.558748E+07  9.812033E-01  1.879668E-02  0.000000E+00  1.024000E+03  1.509646E+02  3.443188E-17  3.176580E-01    1 
 5.000000E-01  5.000000E-01  1.195000E+02  3.647972E+01  1.556883E+07  1.557746E+07  9.811393E-01  1.886066E-02  0.000000E+00  1.024000E+03  1.508981E+02  3.443758E-17  3.179120E-01    1 
 5.000000E-01  5.000000E-01  1.205000E+02  3.643901E+01  1.555879E+07  1.556745E+07  9.810753E-01  1.892466E-02  0.000000E+00  1.024000E+03  1.508316E+02  3.444329E-17  3.181663E-01    1 
 5.000000E-01  5.000000E-01  1.215000E+02  3.639830E+01  1.554876E+07  1.555743E+07  9.810113E-01  1.898866E-02  0.000000E+00  1.024000E+03  1.507651E+02  3.444901E-17  3.184207E-01    1 
 5.000000E-01  5.000000E-01  1.225000E+02  3.635759E+01  1.553872E+07  1.554741E+07  9.809473E-01  1.905269E-02  0.000000E+00  1.024000E+03  1.506986E+02  3.445473E-17  3.186753E-01    1 
 5.000000E-01  5.000000E-01  1.235000E+02  3.631688E+01  1.552868E+07  1.553739E+07  9.808833E-01  1.911675E-02  0.000000E+00  1.024000E+03  1.506320E+02  3.446046E-17  3.189302E-01    1 
 5.000000E-01  5.000000E-01  1.245000E+02  3.627618E+01  1.551864E+07  1.552737E+07  9.808192E-01  1.918083E-02  0.000000E+00  1.024000E+03  1.505654E+02  3.446619E-17  3.191852E-01    1 
 5.000000E-01  5.000000E-01  1.255000E+02  3.623548E+01  1.550861E+07  1.551736E+07  9.807550E-01  1.924496E-02  0.000000E+00  1.024000E+03  1.504988E+02  3.447192E-17  3.194405E-01    1 
 5.000000E-01  5.000000E-01  1.265000E+02  3.619479E+01  1.549857E+07  1.550734E+07  9.806909E-01  1.930912E-02  0.000000E+00  1.024000E+03  1.504321E+02  3.447767E-17  3.196959E-01    1 
 5.000000E-01  5.000000E-01  1.275000E+02  3.615410E+01  1.548853E+07  1.549732E+07  9.806267E-01  1.937333E-02  0.000000E+00  1.024000E+03  1.503654E+02  3.448342E-17  3.199516E-01    1 
 5.000000E-01  5.000000E-01  1.285000E+02  3.611341E+01  1.547850E+07  1.548730E+07  9.805624E-01  1.943759E-02  0.000000E+00  1.024000E+03  1.502987E+02  3.448917E-17  3.202074E-01    1 
 5.000000E-01  5.000000E-01  1.295000E+02  3.607272E+01  1.546846E+07  1.547728E+07  9.804981E-01  1.950190E-02  0.000000E+00  1.024000E+03  1.502320E+02  3.449493E-17  3.204635E-01    1 
 5.000000E-01  5.000000E-01  1.305000E+02  3.603204E+01  1.545842E+07  1.546727E+07  9.804337E-01  1.956627E-02  0.000000E+00  1.024000E+03  1.501652E+02  3.450069E-17  3.207197E-01    1 
 5.000000E-01  5.000000E-01  1.315000E+02  3.599136E+01  1.544838E+07  1.545725E+07  9.803693E-01  1.963069E-02  0.000000E+00  1.024000E+03  1.500984E+02  3.450646E-17  3.209762E-01    1 
 5.000000E-01  5.000000E-01  1.325000E+02  3.595068E+01  1.543835E+07  1.544723E+07  9.803048E-01  1.969518E-02  0.000000E+00  1.024000E+03  1.500315E+02  3.451224E-17  3.212329E-01    1 
 5.000000E-01  5.000000E-01  1.335000E+02  3.591001E+01  1.542831E+07  1.543721E+07  9.802403E-01  1.975973E-02  0.000000E+00  1.024000E+03  1.499647E+02  3.451802E-17  3.214898E-01    1 
 5.000000E-01  5.000000E-01  1.345000E+02  3.586934E+01  1.541827E+07  1.542719E+07  9.801756E-01  1.982435E-02  0.000000E+00  1.024000E+03  1.498978E+02  3.452381E-17  3.217469E-01    1 
 5.000000E-01  5.000000E-01  1.355000E+02  3.582868E+01  1.540823E+07  1.541717E+07  9.801110E-01  1.988904E-02  0.000000E+00  1.024000E+03  1.498309E+02  3.452960E-17  3.220042E-01    1 
 5.000000E-01  5.000000E-01  1.365000E+02  3.578801E+01  1.539820E+07  1.540715E+07  9.800462E-01  1.995380E-02  0.000000E+00  1.024000E+03  1.497639E+02  3.453540E-17  3.222617E-01    1 
 5.000000E-01  5.000000E-01  1.375000E+02  3.574735E+01  1.538816E+07  1.539714E+07  9.799814E-01  2.001863E-02  0.000000E+00  1.024000E+03  1.496969E+02  3.454121E-17  3.225194E-01    1 
 5.000000E-01  5.000000E-01  1.385000E+02  3.570670E+01  1.537812E+07  1.538712E+07  9.799165E-01  2.008354E-02  0.000000E+00  1.024000E+03  1.496299E+02  3.454701E-17  3.227773E-01    1 
 5.000000E-01  5.000000E-01  1.395000E+02  3.566604E+01  1.536809E+07  1.537710E+07  9.798515E-01  2.014853E-02  0.000000E+00  1.024000E+03  1.495629E+02  3.455283E-17  3.230354E-01    1 
 5.000000E-01  5.000000E-01  1.405000E+02  3.562539E+01  1.535805E+07  1.536708E+07  9.797864E-01  2.021360E-02  0.000000E+00  1.024000E+03  1.494958E+02  3.455865E-17  3.232937E-01    1 
 5.000000E-01  5.000000E-01  1.415000E+02  3.558474E+01  1.534801E+07  1.535706E+07  9.797213E-01  2.027875E-02  0.000000E+00  1.024000E+03  1.494287E+02  3.456448E-17  3.235523E-01    1 
 5.000000E-01  5.000000E-01  1.425000E+02  3.554410E+01  1.533797E+07  1.534704E+07  9.796560E-01  2.034398E-02  0.000000E+00  1.024000E+03  1.493616E+02  3.457031E-17  3.238110E-01    1 
 5.000000E-01  5.000000E-01  1.435000E+02  3.550346E+01  1.532794E+07  1.533702E+07  9.795907E-01  2.040930E-02  0.000000E+00  1.024000E+03  1.492944E+02  3.457615E-17  3.240699E-01    1 
 5.000000E-01  5.000000E-01  1.445000E+02  3.546282E+01  1.531790E+07  1.532700E+07  9.795253E-01  2.047471E-02  0.000000E+00  1.024000E+03  1.492273E+02  3.458199E-17  3.243291E-01    1 
 5.000000E-01  5.000000E-01  1.455000E+02  3.542219E+01  1.530786E+07  1.531698E+07  9.794598E-01  2.054021E-02  0.000000E+00  1.024000E+03  1.491600E+02  3.458784E-17  3.245885E-01    1 
 5.000000E-01  5.000000E-01  1.465000E+02  3.538156E+01  1.529782E+07  1.530697E+07  9.793942E-01  2.060580E-02  0.000000E+00  1.024000E+03  1.490928E+02  3.459370E-17  3.248480E-01    1 
 5.000000E-01  5.000000E-01  1.475000E+02  3.534093E+01  1.528779E+07  1.529695E+07  9.793285E-01  2.067150E-02  0.000000E+00  1.024000E+03  1.490255E+02  3.459956E-17  3.251078E-01    1 
 5.000000E-01  5.000000E-01  1.485000E+02  3.530031E+01  1.527775E+07  1.528693E+07  9.792627E-01  2.073729E-02  0.000000E+00  1.024000E+03  1.489582E+02  3.460542E-17  3.253678E-01    1 
 5.000000E-01  5.000000E-01  1.495000E+02  3.525968E+01  1.526771E+07  1.527691E+07  9.791968E-01  2.080318E-02  0.000000E+00  1.024000E+03  1.488909E+02  3.461129E-17  3.256280E-01    1 
 5.000000E-01  5.000000E-01  1.505000E+02  3.521907E+01  1.525767E+07  1.526689E+07  9.791308E-01  2.086919E-02  0.000000E+00  1.024000E+03  1.488235E+02  3.461717E-17  3.258884E-01    1 
 5.000000E-01  5.000000E-01  1.515000E+02  3.517845E+01  1.524764E+07  1.525687E+07  9.790647E-01  2.093531E-02  0.000000E+00  1.024000E+03  1.487562E+02  3.462306E-17  3.261490E-01    1 
 5.000000E-01  5.000000E-01  1.525000E+02  3.513784E+01  1.523760E+07  1.524685E+07  9.789985E-01  2.100154E-02  0.000000E+00  1.024000E+03  1.486887E+02  3.462894E-17  3.264098E-01    1 
 5.000000E-01  5.000000E-01  1.535000E+02  3.509723E+01  1.522756E+07  1.523683E+07  9.789321E-01  2.106790E-02  0.000000E+00  1.024000E+03  1.486213E+02  3.463484E-17  3.266708E-01    1 
 5.000000E-01  5.000000E-01  1.545000E+02  3.505663E+01  1.521752E+07  1.522681E+07  9.788656E-01  2.113439E-02  0.000000E+00  1.024000E+03  1.485538E+02  3.464074E-17  3.269320E-01    1 
 5.000000E-01  5.000000E-01  1.555000E+02  3.501603E+01  1.520749E+07  1.521679E+07  9.787990E-01  2.120101E-02  0.000000E+00  1.024000E+03  1.484863E+02  3.464665E-17  3.271935E-01    1 
 5.000000E-01  5.000000E-01  1.565000E+02  3.497543E+01  1.519745E+07  1.520677E+07  9.787322E-01  2.126777E-02  0.000000E+00  1.024000E+03  1.484188E+02  3.465256E-17  3.274551E-01    1 