TITLE = "  9.07000E+04 [y]"
VARIABLES="X [m]","Y [m]","Z [m]","Temperature [C]","Liquid Pressure [Pa]","Gas Pressure [Pa]","Liquid Saturation","Gas Saturation","Hydrate Saturation","Liquid Density [kg/m^3]","Gas Density [kg/m^3]","Permeability X [m^2]","Porosity","Material ID"
ZONE T="9.07000E+04", STRANDID=1, SOLUTIONTIME=9.07000E+04, I=1, J=1, K=1000, DATAPACKING=POINT
 5.000000E-01  5.000000E-01  5.000000E-01  4.167149E+01  1.677050E+07  1.677454E+07  9.926458E-01  7.354218E-03  0.000000E+00  1.024000E+03  1.585132E+02  3.379583E-17  2.890648E-01    1 
 5.000000E-01  5.000000E-01  1.500000E+00  4.163045E+01  1.676046E+07  1.676454E+07  9.925708E-01  7.429210E-03  0.000000E+00  1.024000E+03  1.584502E+02  3.380093E-17  2.892959E-01    1 
 5.000000E-01  5.000000E-01  2.500000E+00  4.158940E+01  1.675042E+07  1.675454E+07  9.925038E-01  7.496221E-03  0.000000E+00  1.024000E+03  1.583870E+02  3.380603E-17  2.895273E-01    1 
 5.000000E-01  5.000000E-01  3.500000E+00  4.154836E+01  1.674039E+07  1.674454E+07  9.924361E-01  7.563932E-03  0.000000E+00  1.024000E+03  1.583239E+02  3.381113E-17  2.897588E-01    1 
 5.000000E-01  5.000000E-01  4.500000E+00  4.150732E+01  1.673035E+07  1.673454E+07  9.923677E-01  7.632349E-03  0.000000E+00  1.024000E+03  1.582607E+02  3.381624E-17  2.899905E-01    1 
 5.000000E-01  5.000000E-01  5.500000E+00  4.146629E+01  1.672032E+07  1.672453E+07  9.922985E-01  7.701468E-03  0.000000E+00  1.024000E+03  1.581975E+02  3.382135E-17  2.902224E-01    1 
 5.000000E-01  5.000000E-01  6.500000E+00  4.142526E+01  1.671028E+07  1.671453E+07  9.922287E-01  7.771273E-03  0.000000E+00  1.024000E+03  1.581343E+02  3.382647E-17  2.904545E-01    1 
 5.000000E-01  5.000000E-01  7.500000E+00  4.138423E+01  1.670025E+07  1.670453E+07  9.921583E-01  7.841744E-03  0.000000E+00  1.024000E+03  1.580711E+02  3.383160E-17  2.906868E-01    1 
 5.000000E-01  5.000000E-01  8.500000E+00  4.134320E+01  1.669021E+07  1.669453E+07  9.920871E-01  7.912854E-03  0.000000E+00  1.024000E+03  1.580078E+02  3.383673E-17  2.909192E-01    1 
 5.000000E-01  5.000000E-01  9.500000E+00  4.130218E+01  1.668018E+07  1.668453E+07  9.920154E-01  7.984574E-03  0.000000E+00  1.024000E+03  1.579445E+02  3.384186E-17  2.911519E-01    1 
 5.000000E-01  5.000000E-01  1.050000E+01  4.126116E+01  1.667014E+07  1.667453E+07  9.919431E-01  8.056870E-03  0.000000E+00  1.024000E+03  1.578812E+02  3.384700E-17  2.913847E-01    1 
 5.000000E-01  5.000000E-01  1.150000E+01  4.122015E+01  1.666010E+07  1.666453E+07  9.918703E-01  8.129702E-03  0.000000E+00  1.024000E+03  1.578179E+02  3.385214E-17  2.916177E-01    1 
 5.000000E-01  5.000000E-01  1.250000E+01  4.117913E+01  1.665007E+07  1.665452E+07  9.917970E-01  8.203027E-03  0.000000E+00  1.024000E+03  1.577545E+02  3.385729E-17  2.918509E-01    1 
 5.000000E-01  5.000000E-01  1.350000E+01  4.113813E+01  1.664003E+07  1.664452E+07  9.917232E-01  8.276799E-03  0.000000E+00  1.024000E+03  1.576911E+02  3.386244E-17  2.920843E-01    1 
 5.000000E-01  5.000000E-01  1.450000E+01  4.109712E+01  1.663000E+07  1.663452E+07  9.916490E-01  8.350966E-03  0.000000E+00  1.024000E+03  1.576277E+02  3.386760E-17  2.923179E-01    1 
 5.000000E-01  5.000000E-01  1.550000E+01  4.105612E+01  1.661996E+07  1.662452E+07  9.915745E-01  8.425475E-03  0.000000E+00  1.024000E+03  1.575643E+02  3.387276E-17  2.925516E-01    1 
 5.000000E-01  5.000000E-01  1.650000E+01  4.101512E+01  1.660992E+07  1.661452E+07  9.914997E-01  8.500268E-03  0.000000E+00  1.024000E+03  1.575008E+02  3.387793E-17  2.927856E-01    1 
 5.000000E-01  5.000000E-01  1.750000E+01  4.097412E+01  1.659989E+07  1.660452E+07  9.914247E-01  8.575282E-03  0.000000E+00  1.024000E+03  1.574373E+02  3.388310E-17  2.930197E-01    1 
 5.000000E-01  5.000000E-01  1.850000E+01  4.093312E+01  1.658985E+07  1.659452E+07  9.913495E-01  8.650456E-03  0.000000E+00  1.024000E+03  1.573738E+02  3.388828E-17  2.932541E-01    1 
 5.000000E-01  5.000000E-01  1.950000E+01  4.089213E+01  1.657981E+07  1.658452E+07  9.912743E-01  8.725722E-03  0.000000E+00  1.024000E+03  1.573102E+02  3.389346E-17  2.934886E-01    1 
 5.000000E-01  5.000000E-01  2.050000E+01  4.085115E+01  1.656978E+07  1.657452E+07  9.911990E-01  8.801013E-03  0.000000E+00  1.024000E+03  1.572466E+02  3.389865E-17  2.937233E-01    1 
 5.000000E-01  5.000000E-01  2.150000E+01  4.081016E+01  1.655974E+07  1.656452E+07  9.911237E-01  8.876258E-03  0.000000E+00  1.024000E+03  1.571830E+02  3.390384E-17  2.939581E-01    1 
 5.000000E-01  5.000000E-01  2.250000E+01  4.076918E+01  1.654970E+07  1.655451E+07  9.910486E-01  8.951389E-03  0.000000E+00  1.024000E+03  1.571194E+02  3.390904E-17  2.941932E-01    1 
 5.000000E-01  5.000000E-01  2.350000E+01  4.072820E+01  1.653967E+07  1.654451E+07  9.909737E-01  9.026335E-03  0.000000E+00  1.024000E+03  1.570557E+02  3.391424E-17  2.944285E-01    1 
 5.000000E-01  5.000000E-01  2.450000E+01  4.068723E+01  1.652963E+07  1.653451E+07  9.908990E-01  9.101027E-03  0.000000E+00  1.024000E+03  1.569920E+02  3.391945E-17  2.946639E-01    1 
 5.000000E-01  5.000000E-01  2.550000E+01  4.064625E+01  1.651959E+07  1.652451E+07  9.908246E-01  9.175396E-03  0.000000E+00  1.024000E+03  1.569283E+02  3.392466E-17  2.948996E-01    1 
 5.000000E-01  5.000000E-01  2.650000E+01  4.060528E+01  1.650956E+07  1.651451E+07  9.907506E-01  9.249379E-03  0.000000E+00  1.024000E+03  1.568645E+02  3.392988E-17  2.951354E-01    1 
 5.000000E-01  5.000000E-01  2.750000E+01  4.056432E+01  1.649952E+07  1.650450E+07  9.906771E-01  9.322913E-03  0.000000E+00  1.024000E+03  1.568007E+02  3.393510E-17  2.953714E-01    1 
 5.000000E-01  5.000000E-01  2.850000E+01  4.052336E+01  1.648948E+07  1.649450E+07  9.906041E-01  9.395941E-03  0.000000E+00  1.024000E+03  1.567369E+02  3.394033E-17  2.956076E-01    1 
 5.000000E-01  5.000000E-01  2.950000E+01  4.048240E+01  1.647945E+07  1.648449E+07  9.905316E-01  9.468410E-03  0.000000E+00  1.024000E+03  1.566731E+02  3.394556E-17  2.958440E-01    1 
 5.000000E-01  5.000000E-01  3.050000E+01  4.044144E+01  1.646941E+07  1.647449E+07  9.904597E-01  9.540274E-03  0.000000E+00  1.024000E+03  1.566092E+02  3.395080E-17  2.960806E-01    1 
 5.000000E-01  5.000000E-01  3.150000E+01  4.040049E+01  1.645937E+07  1.646449E+07  9.903885E-01  9.611493E-03  0.000000E+00  1.024000E+03  1.565453E+02  3.395604E-17  2.963173E-01    1 
 5.000000E-01  5.000000E-01  3.250000E+01  4.035954E+01  1.644933E+07  1.645448E+07  9.903180E-01  9.682034E-03  0.000000E+00  1.024000E+03  1.564814E+02  3.396129E-17  2.965543E-01    1 
 5.000000E-01  5.000000E-01  3.350000E+01  4.031859E+01  1.643930E+07  1.644447E+07  9.902481E-01  9.751870E-03  0.000000E+00  1.024000E+03  1.564174E+02  3.396654E-17  2.967915E-01    1 
 5.000000E-01  5.000000E-01  3.450000E+01  4.027765E+01  1.642926E+07  1.643447E+07  9.901790E-01  9.820984E-03  0.000000E+00  1.024000E+03  1.563534E+02  3.397180E-17  2.970288E-01    1 
 5.000000E-01  5.000000E-01  3.550000E+01  4.023671E+01  1.641922E+07  1.642446E+07  9.901106E-01  9.889365E-03  0.000000E+00  1.024000E+03  1.562894E+02  3.397706E-17  2.972663E-01    1 
 5.000000E-01  5.000000E-01  3.650000E+01  4.019577E+01  1.640918E+07  1.641445E+07  9.900430E-01  9.957010E-03  0.000000E+00  1.024000E+03  1.562253E+02  3.398233E-17  2.975040E-01    1 
 5.000000E-01  5.000000E-01  3.750000E+01  4.015484E+01  1.639915E+07  1.640445E+07  9.899761E-01  1.002392E-02  0.000000E+00  1.024000E+03  1.561612E+02  3.398760E-17  2.977419E-01    1 
 5.000000E-01  5.000000E-01  3.850000E+01  4.011391E+01  1.638911E+07  1.639444E+07  9.899099E-01  1.009011E-02  0.000000E+00  1.024000E+03  1.560971E+02  3.399288E-17  2.979800E-01    1 
 5.000000E-01  5.000000E-01  3.950000E+01  4.007298E+01  1.637907E+07  1.638443E+07  9.898444E-01  1.015559E-02  0.000000E+00  1.024000E+03  1.560330E+02  3.399816E-17  2.982183E-01    1 
 5.000000E-01  5.000000E-01  4.050000E+01  4.003205E+01  1.636903E+07  1.637442E+07  9.897796E-01  1.022039E-02  0.000000E+00  1.024000E+03  1.559688E+02  3.400345E-17  2.984568E-01    1 
 5.000000E-01  5.000000E-01  4.150000E+01  3.999113E+01  1.635900E+07  1.636441E+07  9.897155E-01  1.028454E-02  0.000000E+00  1.024000E+03  1.559046E+02  3.400874E-17  2.986955E-01    1 
 5.000000E-01  5.000000E-01  4.250000E+01  3.995022E+01  1.634896E+07  1.635440E+07  9.896519E-01  1.034805E-02  0.000000E+00  1.024000E+03  1.558403E+02  3.401404E-17  2.989343E-01    1 
 5.000000E-01  5.000000E-01  4.350000E+01  3.990930E+01  1.633892E+07  1.634439E+07  9.895890E-01  1.041097E-02  0.000000E+00  1.024000E+03  1.557761E+02  3.401934E-17  2.991734E-01    1 
 5.000000E-01  5.000000E-01  4.450000E+01  3.986839E+01  1.632888E+07  1.633438E+07  9.895267E-01  1.047334E-02  0.000000E+00  1.024000E+03  1.557118E+02  3.402465E-17  2.994126E-01    1 
 5.000000E-01  5.000000E-01  4.550000E+01  3.982748E+01  1.631884E+07  1.632437E+07  9.894648E-01  1.053518E-02  0.000000E+00  1.024000E+03  1.556474E+02  3.402996E-17  2.996521E-01    1 
 5.000000E-01  5.000000E-01  4.650000E+01  3.978658E+01  1.630880E+07  1.631436E+07  9.894035E-01  1.059654E-02  0.000000E+00  1.024000E+03  1.555831E+02  3.403528E-17  2.998917E-01    1 
 5.000000E-01  5.000000E-01  4.750000E+01  3.974567E+01  1.629877E+07  1.630435E+07  9.893425E-01  1.065746E-02  0.000000E+00  1.024000E+03  1.555187E+02  3.404060E-17  3.001315E-01    1 
 5.000000E-01  5.000000E-01  4.850000E+01  3.970478E+01  1.628873E+07  1.629433E+07  9.892820E-01  1.071798E-02  0.000000E+00  1.024000E+03  1.554542E+02  3.404593E-17  3.003715E-01    1 
 5.000000E-01  5.000000E-01  4.950000E+01  3.966388E+01  1.627869E+07  1.628432E+07  9.892219E-01  1.077813E-02  0.000000E+00  1.024000E+03  1.553898E+02  3.405126E-17  3.006117E-01    1 
 5.000000E-01  5.000000E-01  5.050000E+01  3.962299E+01  1.626865E+07  1.627431E+07  9.891620E-01  1.083796E-02  0.000000E+00  1.024000E+03  1.553253E+02  3.405660E-17  3.008521E-01    1 
 5.000000E-01  5.000000E-01  5.150000E+01  3.958210E+01  1.625861E+07  1.626430E+07  9.891025E-01  1.089750E-02  0.000000E+00  1.024000E+03  1.552608E+02  3.406195E-17  3.010927E-01    1 
 5.000000E-01  5.000000E-01  5.250000E+01  3.954122E+01  1.624857E+07  1.625428E+07  9.890432E-01  1.095678E-02  0.000000E+00  1.024000E+03  1.551963E+02  3.406729E-17  3.013335E-01    1 
 5.000000E-01  5.000000E-01  5.350000E+01  3.950033E+01  1.623853E+07  1.624427E+07  9.889841E-01  1.101585E-02  0.000000E+00  1.024000E+03  1.551317E+02  3.407265E-17  3.015744E-01    1 
 5.000000E-01  5.000000E-01  5.450000E+01  3.945946E+01  1.622850E+07  1.623426E+07  9.889253E-01  1.107474E-02  0.000000E+00  1.024000E+03  1.550671E+02  3.407801E-17  3.018156E-01    1 
 5.000000E-01  5.000000E-01  5.550000E+01  3.941858E+01  1.621846E+07  1.622424E+07  9.888665E-01  1.113348E-02  0.000000E+00  1.024000E+03  1.550025E+02  3.408337E-17  3.020570E-01    1 
 5.000000E-01  5.000000E-01  5.650000E+01  3.937771E+01  1.620842E+07  1.621423E+07  9.888079E-01  1.119211E-02  0.000000E+00  1.024000E+03  1.549378E+02  3.408874E-17  3.022985E-01    1 
 5.000000E-01  5.000000E-01  5.750000E+01  3.933684E+01  1.619838E+07  1.620422E+07  9.887493E-01  1.125066E-02  0.000000E+00  1.024000E+03  1.548731E+02  3.409411E-17  3.025403E-01    1 
 5.000000E-01  5.000000E-01  5.850000E+01  3.929597E+01  1.618834E+07  1.619420E+07  9.886908E-01  1.130915E-02  0.000000E+00  1.024000E+03  1.548084E+02  3.409949E-17  3.027822E-01    1 
 5.000000E-01  5.000000E-01  5.950000E+01  3.925511E+01  1.617830E+07  1.618419E+07  9.886324E-01  1.136763E-02  0.000000E+00  1.024000E+03  1.547437E+02  3.410488E-17  3.030243E-01    1 
 5.000000E-01  5.000000E-01  6.050000E+01  3.921425E+01  1.616826E+07  1.617417E+07  9.885739E-01  1.142612E-02  0.000000E+00  1.024000E+03  1.546789E+02  3.411027E-17  3.032666E-01    1 
 5.000000E-01  5.000000E-01  6.150000E+01  3.917340E+01  1.615822E+07  1.616416E+07  9.885153E-01  1.148465E-02  0.000000E+00  1.024000E+03  1.546141E+02  3.411566E-17  3.035092E-01    1 
 5.000000E-01  5.000000E-01  6.250000E+01  3.913254E+01  1.614818E+07  1.615414E+07  9.884567E-01  1.154326E-02  0.000000E+00  1.024000E+03  1.545493E+02  3.412106E-17  3.037519E-01    1 
 5.000000E-01  5.000000E-01  6.350000E+01  3.909170E+01  1.613814E+07  1.614413E+07  9.883980E-01  1.160196E-02  0.000000E+00  1.024000E+03  1.544844E+02  3.412647E-17  3.039948E-01    1 
 5.000000E-01  5.000000E-01  6.450000E+01  3.905085E+01  1.612810E+07  1.613411E+07  9.883392E-01  1.166080E-02  0.000000E+00  1.024000E+03  1.544196E+02  3.413188E-17  3.042379E-01    1 
 5.000000E-01  5.000000E-01  6.550000E+01  3.901001E+01  1.611806E+07  1.612410E+07  9.882802E-01  1.171980E-02  0.000000E+00  1.024000E+03  1.543546E+02  3.413729E-17  3.044812E-01    1 
 5.000000E-01  5.000000E-01  6.650000E+01  3.896917E+01  1.610802E+07  1.611409E+07  9.882210E-01  1.177899E-02  0.000000E+00  1.024000E+03  1.542897E+02  3.414271E-17  3.047247E-01    1 
 5.000000E-01  5.000000E-01  6.750000E+01  3.892833E+01  1.609798E+07  1.610407E+07  9.881616E-01  1.183839E-02  0.000000E+00  1.024000E+03  1.542247E+02  3.414814E-17  3.049683E-01    1 
 5.000000E-01  5.000000E-01  6.850000E+01  3.888750E+01  1.608794E+07  1.609406E+07  9.881020E-01  1.189805E-02  0.000000E+00  1.024000E+03  1.541597E+02  3.415357E-17  3.052122E-01    1 
 5.000000E-01  5.000000E-01  6.950000E+01  3.884667E+01  1.607790E+07  1.608404E+07  9.880420E-01  1.195797E-02  0.000000E+00  1.024000E+03  1.540947E+02  3.415901E-17  3.054563E-01    1 
 5.000000E-01  5.000000E-01  7.050000E+01  3.880585E+01  1.606786E+07  1.607403E+07  9.879818E-01  1.201820E-02  0.000000E+00  1.024000E+03  1.540297E+02  3.416445E-17  3.057006E-01    1 
 5.000000E-01  5.000000E-01  7.150000E+01  3.876502E+01  1.605782E+07  1.606401E+07  9.879213E-01  1.207875E-02  0.000000E+00  1.024000E+03  1.539646E+02  3.416989E-17  3.059450E-01    1 
 5.000000E-01  5.000000E-01  7.250000E+01  3.872420E+01  1.604778E+07  1.605400E+07  9.878603E-01  1.213965E-02  0.000000E+00  1.024000E+03  1.538995E+02  3.417535E-17  3.061897E-01    1 
 5.000000E-01  5.000000E-01  7.350000E+01  3.868339E+01  1.603774E+07  1.604398E+07  9.877991E-01  1.220094E-02  0.000000E+00  1.024000E+03  1.538344E+02  3.418080E-17  3.064345E-01    1 
 5.000000E-01  5.000000E-01  7.450000E+01  3.864258E+01  1.602770E+07  1.603397E+07  9.877374E-01  1.226262E-02  0.000000E+00  1.024000E+03  1.537692E+02  3.418627E-17  3.066796E-01    1 
 5.000000E-01  5.000000E-01  7.550000E+01  3.860177E+01  1.601766E+07  1.602395E+07  9.876753E-01  1.232472E-02  0.000000E+00  1.024000E+03  1.537040E+02  3.419173E-17  3.069248E-01    1 
 5.000000E-01  5.000000E-01  7.650000E+01  3.856096E+01  1.600762E+07  1.601394E+07  9.876127E-01  1.238726E-02  0.000000E+00  1.024000E+03  1.536388E+02  3.419721E-17  3.071703E-01    1 
 5.000000E-01  5.000000E-01  7.750000E+01  3.852016E+01  1.599758E+07  1.600392E+07  9.875497E-01  1.245027E-02  0.000000E+00  1.024000E+03  1.535736E+02  3.420268E-17  3.074159E-01    1 
 5.000000E-01  5.000000E-01  7.850000E+01  3.847936E+01  1.598754E+07  1.599391E+07  9.874863E-01  1.251375E-02  0.000000E+00  1.024000E+03  1.535083E+02  3.420817E-17  3.076617E-01    1 
 5.000000E-01  5.000000E-01  7.950000E+01  3.843856E+01  1.597750E+07  1.598389E+07  9.874223E-01  1.257772E-02  0.000000E+00  1.024000E+03  1.534430E+02  3.421366E-17  3.079078E-01    1 
 5.000000E-01  5.000000E-01  8.050000E+01  3.839777E+01  1.596746E+07  1.597388E+07  9.873578E-01  1.264220E-02  0.000000E+00  1.024000E+03  1.533777E+02  3.421915E-17  3.081540E-01    1 
 5.000000E-01  5.000000E-01  8.150000E+01  3.835698E+01  1.595742E+07  1.596386E+07  9.872928E-01  1.270718E-02  0.000000E+00  1.024000E+03  1.533124E+02  3.422465E-17  3.084004E-01    1 
 5.000000E-01  5.000000E-01  8.250000E+01  3.831619E+01  1.594738E+07  1.595385E+07  9.872273E-01  1.277269E-02  0.000000E+00  1.024000E+03  1.532470E+02  3.423015E-17  3.086470E-01    1 
 5.000000E-01  5.000000E-01  8.350000E+01  3.827541E+01  1.593734E+07  1.594383E+07  9.871613E-01  1.283871E-02  0.000000E+00  1.024000E+03  1.531816E+02  3.423566E-17  3.088939E-01    1 
 5.000000E-01  5.000000E-01  8.450000E+01  3.823463E+01  1.592730E+07  1.593382E+07  9.870947E-01  1.290526E-02  0.000000E+00  1.024000E+03  1.531161E+02  3.424118E-17  3.091409E-01    1 
 5.000000E-01  5.000000E-01  8.550000E+01  3.819386E+01  1.591725E+07  1.592381E+07  9.870277E-01  1.297232E-02  0.000000E+00  1.024000E+03  1.530507E+02  3.424670E-17  3.093881E-01    1 
 5.000000E-01  5.000000E-01  8.650000E+01  3.815308E+01  1.590721E+07  1.591379E+07  9.869601E-01  1.303988E-02  0.000000E+00  1.024000E+03  1.529852E+02  3.425222E-17  3.096355E-01    1 
 5.000000E-01  5.000000E-01  8.750000E+01  3.811231E+01  1.589717E+07  1.590378E+07  9.868921E-01  1.310793E-02  0.000000E+00  1.024000E+03  1.529197E+02  3.425775E-17  3.098831E-01    1 
 5.000000E-01  5.000000E-01  8.850000E+01  3.807155E+01  1.588713E+07  1.589376E+07  9.868235E-01  1.317646E-02  0.000000E+00  1.024000E+03  1.528542E+02  3.426329E-17  3.101309E-01    1 
 5.000000E-01  5.000000E-01  8.950000E+01  3.803079E+01  1.587709E+07  1.588375E+07  9.867546E-01  1.324545E-02  0.000000E+00  1.024000E+03  1.527886E+02  3.426883E-17  3.103789E-01    1 
 5.000000E-01  5.000000E-01  9.050000E+01  3.799003E+01  1.586705E+07  1.587373E+07  9.866851E-01  1.331486E-02  0.000000E+00  1.024000E+03  1.527230E+02  3.427438E-17  3.106271E-01    1 
 5.000000E-01  5.000000E-01  9.150000E+01  3.794927E+01  1.585701E+07  1.586372E+07  9.866153E-01  1.338467E-02  0.000000E+00  1.024000E+03  1.526574E+02  3.427993E-17  3.108755E-01    1 
 5.000000E-01  5.000000E-01  9.250000E+01  3.790852E+01  1.584696E+07  1.585371E+07  9.865451E-01  1.345485E-02  0.000000E+00  1.024000E+03  1.525917E+02  3.428549E-17  3.111241E-01    1 
 5.000000E-01  5.000000E-01  9.350000E+01  3.786777E+01  1.583692E+07  1.584369E+07  9.864746E-01  1.352537E-02  0.000000E+00  1.024000E+03  1.525260E+02  3.429105E-17  3.113729E-01    1 
 5.000000E-01  5.000000E-01  9.450000E+01  3.782702E+01  1.582688E+07  1.583368E+07  9.864038E-01  1.359617E-02  0.000000E+00  1.024000E+03  1.524603E+02  3.429662E-17  3.116219E-01    1 
 5.000000E-01  5.000000E-01  9.550000E+01  3.778628E+01  1.581684E+07  1.582366E+07  9.863328E-01  1.366722E-02  0.000000E+00  1.024000E+03  1.523946E+02  3.430219E-17  3.118711E-01    1 
 5.000000E-01  5.000000E-01  9.650000E+01  3.774554E+01  1.580680E+07  1.581365E+07  9.862615E-01  1.373848E-02  0.000000E+00  1.024000E+03  1.523288E+02  3.430777E-17  3.121205E-01    1 
 5.000000E-01  5.000000E-01  9.750000E+01  3.770480E+01  1.579675E+07  1.580364E+07  9.861901E-01  1.380990E-02  0.000000E+00  1.024000E+03  1.522630E+02  3.431336E-17  3.123701E-01    1 
 5.000000E-01  5.000000E-01  9.850000E+01  3.766407E+01  1.578671E+07  1.579362E+07  9.861186E-01  1.388144E-02  0.000000E+00  1.024000E+03  1.521972E+02  3.431895E-17  3.126199E-01    1 
 5.000000E-01  5.000000E-01  9.950000E+01  3.762334E+01  1.577667E+07  1.578361E+07  9.860470E-01  1.395304E-02  0.000000E+00  1.024000E+03  1.521314E+02  3.432454E-17  3.128699E-01    1 
 5.000000E-01  5.000000E-01  1.005000E+02  3.758261E+01  1.576663E+07  1.577359E+07  9.859753E-01  1.402466E-02  0.000000E+00  1.024000E+03  1.520655E+02  3.433014E-17  3.131201E-01    1 
 5.000000E-01  5.000000E-01  1.015000E+02  3.754189E+01  1.575658E+07  1.576358E+07  9.859037E-01  1.409626E-02  0.000000E+00  1.024000E+03  1.519996E+02  3.433575E-17  3.133705E-01    1 
 5.000000E-01  5.000000E-01  1.025000E+02  3.750117E+01  1.574654E+07  1.575356E+07  9.858322E-01  1.416778E-02  0.000000E+00  1.024000E+03  1.519336E+02  3.434136E-17  3.136211E-01    1 
 5.000000E-01  5.000000E-01  1.035000E+02  3.746045E+01  1.573650E+07  1.574355E+07  9.857608E-01  1.423919E-02  0.000000E+00  1.024000E+03  1.518677E+02  3.434698E-17  3.138719E-01    1 
 5.000000E-01  5.000000E-01  1.045000E+02  3.741974E+01  1.572646E+07  1.573353E+07  9.856896E-01  1.431045E-02  0.000000E+00  1.024000E+03  1.518017E+02  3.435260E-17  3.141229E-01    1 
 5.000000E-01  5.000000E-01  1.055000E+02  3.737903E+01  1.571641E+07  1.572351E+07  9.856185E-01  1.438151E-02  0.000000E+00  1.024000E+03  1.517357E+02  3.435823E-17  3.143741E-01    1 
 5.000000E-01  5.000000E-01  1.065000E+02  3.733832E+01  1.570637E+07  1.571350E+07  9.855477E-01  1.445235E-02  0.000000E+00  1.024000E+03  1.516696E+02  3.436386E-17  3.146255E-01    1 
 5.000000E-01  5.000000E-01  1.075000E+02  3.729762E+01  1.569633E+07  1.570348E+07  9.854771E-01  1.452293E-02  0.000000E+00  1.024000E+03  1.516035E+02  3.436950E-17  3.148771E-01    1 
 5.000000E-01  5.000000E-01  1.085000E+02  3.725692E+01  1.568628E+07  1.569346E+07  9.854068E-01  1.459322E-02  0.000000E+00  1.024000E+03  1.515374E+02  3.437514E-17  3.151289E-01    1 
 5.000000E-01  5.000000E-01  1.095000E+02  3.721623E+01  1.567624E+07  1.568345E+07  9.853368E-01  1.466320E-02  0.000000E+00  1.024000E+03  1.514712E+02  3.438079E-17  3.153809E-01    1 
 5.000000E-01  5.000000E-01  1.105000E+02  3.717553E+01  1.566620E+07  1.567343E+07  9.852671E-01  1.473285E-02  0.000000E+00  1.024000E+03  1.514051E+02  3.438645E-17  3.156331E-01    1 
 5.000000E-01  5.000000E-01  1.115000E+02  3.713484E+01  1.565615E+07  1.566341E+07  9.851978E-01  1.480217E-02  0.000000E+00  1.024000E+03  1.513388E+02  3.439211E-17  3.158855E-01    1 
 5.000000E-01  5.000000E-01  1.125000E+02  3.709416E+01  1.564611E+07  1.565339E+07  9.851289E-01  1.487112E-02  0.000000E+00  1.024000E+03  1.512726E+02  3.439777E-17  3.161381E-01    1 
 5.000000E-01  5.000000E-01  1.135000E+02  3.705347E+01  1.563607E+07  1.564338E+07  9.850603E-01  1.493971E-02  0.000000E+00  1.024000E+03  1.512063E+02  3.440344E-17  3.163909E-01    1 
 5.000000E-01  5.000000E-01  1.145000E+02  3.701279E+01  1.562602E+07  1.563336E+07  9.849921E-01  1.500794E-02  0.000000E+00  1.024000E+03  1.511400E+02  3.440912E-17  3.166439E-01    1 
 5.000000E-01  5.000000E-01  1.155000E+02  3.697212E+01  1.561598E+07  1.562334E+07  9.849242E-01  1.507579E-02  0.000000E+00  1.024000E+03  1.510737E+02  3.441480E-17  3.168971E-01    1 
 5.000000E-01  5.000000E-01  1.165000E+02  3.693145E+01  1.560594E+07  1.561332E+07  9.848567E-01  1.514328E-02  0.000000E+00  1.024000E+03  1.510073E+02  3.442049E-17  3.171506E-01    1 
 5.000000E-01  5.000000E-01  1.175000E+02  3.689078E+01  1.559589E+07  1.560330E+07  9.847896E-01  1.521041E-02  0.000000E+00  1.024000E+03  1.509409E+02  3.442618E-17  3.174042E-01    1 
 5.000000E-01  5.000000E-01  1.185000E+02  3.685011E+01  1.558585E+07  1.559328E+07  9.847228E-01  1.527719E-02  0.000000E+00  1.024000E+03  1.508745E+02  3.443188E-17  3.176580E-01    1 
 5.000000E-01  5.000000E-01  1.195000E+02  3.680945E+01  1.557580E+07  1.558326E+07  9.846564E-01  1.534362E-02  0.000000E+00  1.024000E+03  1.508080E+02  3.443758E-17  3.179120E-01    1 
 5.000000E-01  5.000000E-01  1.205000E+02  3.676879E+01  1.556576E+07  1.557324E+07  9.845903E-01  1.540972E-02  0.000000E+00  1.024000E+03  1.507416E+02  3.444329E-17  3.181663E-01    1 
 5.000000E-01  5.000000E-01  1.215000E+02  3.672813E+01  1.555572E+07  1.556322E+07  9.845245E-01  1.547550E-02  0.000000E+00  1.024000E+03  1.506750E+02  3.444901E-17  3.184207E-01    1 
 5.000000E-01  5.000000E-01  1.225000E+02  3.668748E+01  1.554567E+07  1.555320E+07  9.844590E-01  1.554097E-02  0.000000E+00  1.024000E+03  1.506085E+02  3.445473E-17  3.186753E-01    1 
 5.000000E-01  5.000000E-01  1.235000E+02  3.664683E+01  1.553563E+07  1.554318E+07  9.843938E-01  1.560616E-02  0.000000E+00  1.024000E+03  1.505419E+02  3.446046E-17  3.189302E-01    1 
 5.000000E-01  5.000000E-01  1.245000E+02  3.660618E+01  1.552558E+07  1.553316E+07  9.843289E-01  1.567106E-02  0.000000E+00  1.024000E+03  1.504753E+02  3.446619E-17  3.191852E-01    1 
 5.000000E-01  5.000000E-01  1.255000E+02  3.656554E+01  1.551554E+07  1.552313E+07  9.842643E-01  1.573571E-02  0.000000E+00  1.024000E+03  1.504087E+02  3.447192E-17  3.194405E-01    1 
 5.000000E-01  5.000000E-01  1.265000E+02  3.652490E+01  1.550549E+07  1.551311E+07  9.841999E-01  1.580011E-02  0.000000E+00  1.024000E+03  1.503420E+02  3.447767E-17  3.196959E-01    1 
 5.000000E-01  5.000000E-01  1.275000E+02  3.648427E+01  1.549545E+07  1.550309E+07  9.841357E-01  1.586428E-02  0.000000E+00  1.024000E+03  1.502753E+02  3.448342E-17  3.199516E-01    1 
 5.000000E-01  5.000000E-01  1.285000E+02  3.644364E+01  1.548540E+07  1.549307E+07  9.840718E-01  1.592825E-02  0.000000E+00  1.024000E+03  1.502086E+02  3.448917E-17  3.202074E-01    1 
 5.000000E-01  5.000000E-01  1.295000E+02  3.640301E+01  1.547536E+07  1.548304E+07  9.840080E-01  1.599201E-02  0.000000E+00  1.024000E+03  1.501418E+02  3.449493E-17  3.204635E-01    1 
 5.000000E-01  5.000000E-01  1.305000E+02  3.636238E+01  1.546531E+07  1.547302E+07  9.839444E-01  1.605560E-02  0.000000E+00  1.024000E+03  1.500750E+02  3.450069E-17  3.207197E-01    1 
 5.000000E-01  5.000000E-01  1.315000E+02  3.632176E+01  1.545527E+07  1.546300E+07  9.838810E-01  1.611901E-02  0.000000E+00  1.024000E+03  1.500082E+02  3.450646E-17  3.209762E-01    1 
 5.000000E-01  5.000000E-01  1.325000E+02  3.628114E+01  1.544522E+07  1.545298E+07  9.838177E-01  1.618228E-02  0.000000E+00  1.024000E+03  1.499413E+02  3.451224E-17  3.212329E-01    1 
 5.000000E-01  5.000000E-01  1.335000E+02  3.624053E+01  1.543518E+07  1.544295E+07  9.837546E-01  1.624541E-02  0.000000E+00  1.024000E+03  1.498745E+02  3.451802E-17  3.214898E-01    1 
 5.000000E-01  5.000000E-01  1.345000E+02  3.619992E+01  1.542513E+07  1.543293E+07  9.836916E-01  1.630842E-02  0.000000E+00  1.024000E+03  1.498075E+02  3.452381E-17  3.217469E-01    1 
 5.000000E-01  5.000000E-01  1.355000E+02  3.615931E+01  1.541508E+07  1.542290E+07  9.836287E-01  1.637132E-02  0.000000E+00  1.024000E+03  1.497406E+02  3.452960E-17  3.220042E-01    1 
 5.000000E-01  5.000000E-01  1.365000E+02  3.611870E+01  1.540504E+07  1.541288E+07  9.835659E-01  1.643412E-02  0.000000E+00  1.024000E+03  1.496736E+02  3.453540E-17  3.222617E-01    1 
 5.000000E-01  5.000000E-01  1.375000E+02  3.607810E+01  1.539499E+07  1.540286E+07  9.835032E-01  1.649684E-02  0.000000E+00  1.024000E+03  1.496066E+02  3.454121E-17  3.225194E-01    1 
 5.000000E-01  5.000000E-01  1.385000E+02  3.603751E+01  1.538495E+07  1.539283E+07  9.834405E-01  1.655949E-02  0.000000E+00  1.024000E+03  1.495396E+02  3.454701E-17  3.227773E-01    1 
 5.000000E-01  5.000000E-01  1.395000E+02  3.599691E+01  1.537490E+07  1.538281E+07  9.833779E-01  1.662207E-02  0.000000E+00  1.024000E+03  1.494725E+02  3.455283E-17  3.230354E-01    1 
 5.000000E-01  5.000000E-01  1.405000E+02  3.595632E+01  1.536486E+07  1.537278E+07  9.833154E-01  1.668461E-02  0.000000E+00  1.024000E+03  1.494054E+02  3.455865E-17  3.232937E-01    1 
 5.000000E-01  5.000000E-01  1.415000E+02  3.591573E+01  1.535481E+07  1.536276E+07  9.832529E-01  1.674710E-02  0.000000E+00  1.024000E+03  1.493383E+02  3.456448E-17  3.235523E-01    1 
 5.000000E-01  5.000000E-01  1.425000E+02  3.587515E+01  1.534476E+07  1.535273E+07  9.831904E-01  1.680957E-02  0.000000E+00  1.024000E+03  1.492711E+02  3.457031E-17  3.238110E-01    1 
 5.000000E-01  5.000000E-01  1.435000E+02  3.583457E+01  1.533472E+07  1.534271E+07  9.831280E-01  1.687201E-02  0.000000E+00  1.024000E+03  1.492040E+02  3.457615E-17  3.240699E-01    1 
 5.000000E-01  5.000000E-01  1.445000E+02  3.579399E+01  1.532467E+07  1.533268E+07  9.830656E-01  1.693445E-02  0.000000E+00  1.024000E+03  1.491367E+02  3.458199E-17  3.243291E-01    1 
 5.000000E-01  5.000000E-01  1.455000E+02  3.575342E+01  1.531462E+07  1.532266E+07  9.830031E-01  1.699688E-02  0.000000E+00  1.024000E+03  1.490695E+02  3.458784E-17  3.245885E-01    1 
 5.000000E-01  5.000000E-01  1.465000E+02  3.571285E+01  1.530458E+07  1.531263E+07  9.829407E-01  1.705931E-02  0.000000E+00  1.024000E+03  1.490022E+02  3.459370E-17  3.248480E-01    1 
 5.000000E-01  5.000000E-01  1.475000E+02  3.567228E+01  1.529453E+07  1.530261E+07  9.828782E-01  1.712175E-02  0.000000E+00  1.024000E+03  1.489349E+02  3.459956E-17  3.251078E-01    1 
 5.000000E-01  5.000000E-01  1.485000E+02  3.563172E+01  1.528448E+07  1.529258E+07  9.828158E-01  1.718422E-02  0.000000E+00  1.024000E+03  1.488676E+02  3.460542E-17  3.253678E-01    1 
 5.000000E-01  5.000000E-01  1.495000E+02  3.559116E+01  1.527444E+07  1.528255E+07  9.827533E-01  1.724670E-02  0.000000E+00  1.024000E+03  1.488002E+02  3.461129E-17  3.256280E-01    1 
 5.000000E-01  5.000000E-01  1.505000E+02  3.555061E+01  1.526439E+07  1.527253E+07  9.826908E-01  1.730922E-02  0.000000E+00  1.024000E+03  1.487328E+02  3.461717E-17  3.258884E-01    1 
 5.000000E-01  5.000000E-01  1.515000E+02  3.551005E+01  1.525434E+07  1.526250E+07  9.826282E-01  1.737177E-02  0.000000E+00  1.024000E+03  1.486654E+02  3.462306E-17  3.261490E-01    1 
 5.000000E-01  5.000000E-01  1.525000E+02  3.546951E+01  1.524429E+07  1.525247E+07  9.825656E-01  1.743437E-02  0.000000E+00  1.024000E+03  1.485979E+02  3.462894E-17  3.264098E-01    1 
 5.000000E-01  5.000000E-01  1.535000E+02  3.542896E+01  1.523425E+07  1.524245E+07  9.825030E-01  1.749700E-02  0.000000E+00  1.024000E+03  1.485305E+02  3.463484E-17  3.266708E-01    1 
 5.000000E-01  5.000000E-01  1.545000E+02  3.538842E+01  1.522420E+07  1.523242E+07  9.824403E-01  1.755969E-02  0.000000E+00  1.024000E+03  1.484629E+02  3.464074E-17  3.269320E-01    1 
 5.000000E-01  5.000000E-01  1.555000E+02  3.534788E+01  1.521415E+07  1.522239E+07  9.823776E-01  1.762242E-02  0.000000E+00  1.024000E+03  1.483954E+02  3.464665E-17  3.271935E-01    1 
 5.000000E-01  5.000000E-01  1.565000E+02  3.530735E+01  1.520410E+07  1.521237E+07  9.823148E-01  1.768522E-02  0.000000E+00  1.024000E+03  1.483278E+02  3.465256E-17  3.274551E-01    1 