TITLE = "  7.83000E+04 [y]"
VARIABLES="X [m]","Y [m]","Z [m]","Temperature [C]","Liquid Pressure [Pa]","Gas Pressure [Pa]","Liquid Saturation","Gas Saturation","Hydrate Saturation","Liquid Density [kg/m^3]","Gas Density [kg/m^3]","Permeability X [m^2]","Porosity","Material ID"
ZONE T="7.83000E+04", STRANDID=1, SOLUTIONTIME=7.83000E+04, I=1, J=1, K=1000, DATAPACKING=POINT
 5.000000E-01  5.000000E-01  5.000000E-01  4.192243E+01  1.707157E+07  1.707373E+07  9.962586E-01  3.741364E-03  0.000000E+00  1.024000E+03  1.608130E+02  3.379583E-17  2.890648E-01    1 
 5.000000E-01  5.000000E-01  1.500000E+00  4.188141E+01  1.706153E+07  1.706373E+07  9.962001E-01  3.799919E-03  0.000000E+00  1.024000E+03  1.607506E+02  3.380093E-17  2.892959E-01    1 
 5.000000E-01  5.000000E-01  2.500000E+00  4.184038E+01  1.705149E+07  1.705372E+07  9.961505E-01  3.849459E-03  0.000000E+00  1.024000E+03  1.606881E+02  3.380603E-17  2.895273E-01    1 
 5.000000E-01  5.000000E-01  3.500000E+00  4.179936E+01  1.704146E+07  1.704371E+07  9.961007E-01  3.899268E-03  0.000000E+00  1.024000E+03  1.606255E+02  3.381113E-17  2.897588E-01    1 
 5.000000E-01  5.000000E-01  4.500000E+00  4.175835E+01  1.703142E+07  1.703370E+07  9.960506E-01  3.949398E-03  0.000000E+00  1.024000E+03  1.605630E+02  3.381624E-17  2.899905E-01    1 
 5.000000E-01  5.000000E-01  5.500000E+00  4.171733E+01  1.702139E+07  1.702370E+07  9.960001E-01  3.999861E-03  0.000000E+00  1.024000E+03  1.605004E+02  3.382135E-17  2.902224E-01    1 
 5.000000E-01  5.000000E-01  6.500000E+00  4.167632E+01  1.701135E+07  1.701369E+07  9.959493E-01  4.050666E-03  0.000000E+00  1.024000E+03  1.604378E+02  3.382647E-17  2.904545E-01    1 
 5.000000E-01  5.000000E-01  7.500000E+00  4.163532E+01  1.700132E+07  1.700368E+07  9.958981E-01  4.101851E-03  0.000000E+00  1.024000E+03  1.603751E+02  3.383160E-17  2.906868E-01    1 
 5.000000E-01  5.000000E-01  8.500000E+00  4.159431E+01  1.699128E+07  1.699367E+07  9.958466E-01  4.153440E-03  0.000000E+00  1.024000E+03  1.603125E+02  3.383673E-17  2.909192E-01    1 
 5.000000E-01  5.000000E-01  9.500000E+00  4.155331E+01  1.698125E+07  1.698367E+07  9.957945E-01  4.205458E-03  0.000000E+00  1.024000E+03  1.602498E+02  3.384186E-17  2.911519E-01    1 
 5.000000E-01  5.000000E-01  1.050000E+01  4.151231E+01  1.697121E+07  1.697366E+07  9.957421E-01  4.257928E-03  0.000000E+00  1.024000E+03  1.601871E+02  3.384700E-17  2.913847E-01    1 
 5.000000E-01  5.000000E-01  1.150000E+01  4.147132E+01  1.696118E+07  1.696365E+07  9.956891E-01  4.310873E-03  0.000000E+00  1.024000E+03  1.601243E+02  3.385214E-17  2.916177E-01    1 
 5.000000E-01  5.000000E-01  1.250000E+01  4.143033E+01  1.695114E+07  1.695365E+07  9.956357E-01  4.364316E-03  0.000000E+00  1.024000E+03  1.600616E+02  3.385729E-17  2.918509E-01    1 
 5.000000E-01  5.000000E-01  1.350000E+01  4.138934E+01  1.694110E+07  1.694364E+07  9.955817E-01  4.418278E-03  0.000000E+00  1.024000E+03  1.599988E+02  3.386244E-17  2.920843E-01    1 
 5.000000E-01  5.000000E-01  1.450000E+01  4.134835E+01  1.693107E+07  1.693363E+07  9.955272E-01  4.472779E-03  0.000000E+00  1.024000E+03  1.599360E+02  3.386760E-17  2.923179E-01    1 
 5.000000E-01  5.000000E-01  1.550000E+01  4.130737E+01  1.692103E+07  1.692363E+07  9.954722E-01  4.527842E-03  0.000000E+00  1.024000E+03  1.598732E+02  3.387276E-17  2.925516E-01    1 
 5.000000E-01  5.000000E-01  1.650000E+01  4.126639E+01  1.691100E+07  1.691362E+07  9.954165E-01  4.583485E-03  0.000000E+00  1.024000E+03  1.598103E+02  3.387793E-17  2.927856E-01    1 
 5.000000E-01  5.000000E-01  1.750000E+01  4.122542E+01  1.690096E+07  1.690361E+07  9.953603E-01  4.639732E-03  0.000000E+00  1.024000E+03  1.597474E+02  3.388310E-17  2.930197E-01    1 
 5.000000E-01  5.000000E-01  1.850000E+01  4.118445E+01  1.689092E+07  1.689361E+07  9.953034E-01  4.696606E-03  0.000000E+00  1.024000E+03  1.596845E+02  3.388828E-17  2.932541E-01    1 
 5.000000E-01  5.000000E-01  1.950000E+01  4.114348E+01  1.688089E+07  1.688360E+07  9.952459E-01  4.754128E-03  0.000000E+00  1.024000E+03  1.596216E+02  3.389346E-17  2.934886E-01    1 
 5.000000E-01  5.000000E-01  2.050000E+01  4.110251E+01  1.687085E+07  1.687360E+07  9.951877E-01  4.812324E-03  0.000000E+00  1.024000E+03  1.595586E+02  3.389865E-17  2.937233E-01    1 
 5.000000E-01  5.000000E-01  2.150000E+01  4.106155E+01  1.686082E+07  1.686359E+07  9.951288E-01  4.871219E-03  0.000000E+00  1.024000E+03  1.594956E+02  3.390384E-17  2.939581E-01    1 
 5.000000E-01  5.000000E-01  2.250000E+01  4.102059E+01  1.685078E+07  1.685359E+07  9.950692E-01  4.930836E-03  0.000000E+00  1.024000E+03  1.594326E+02  3.390904E-17  2.941932E-01    1 
 5.000000E-01  5.000000E-01  2.350000E+01  4.097963E+01  1.684074E+07  1.684358E+07  9.950088E-01  4.991200E-03  0.000000E+00  1.024000E+03  1.593696E+02  3.391424E-17  2.944285E-01    1 
 5.000000E-01  5.000000E-01  2.450000E+01  4.093868E+01  1.683071E+07  1.683358E+07  9.949477E-01  5.052333E-03  0.000000E+00  1.024000E+03  1.593066E+02  3.391945E-17  2.946639E-01    1 
 5.000000E-01  5.000000E-01  2.550000E+01  4.089773E+01  1.682067E+07  1.682358E+07  9.948857E-01  5.114254E-03  0.000000E+00  1.024000E+03  1.592435E+02  3.392466E-17  2.948996E-01    1 
 5.000000E-01  5.000000E-01  2.650000E+01  4.085679E+01  1.681064E+07  1.681357E+07  9.948230E-01  5.176980E-03  0.000000E+00  1.024000E+03  1.591804E+02  3.392988E-17  2.951354E-01    1 
 5.000000E-01  5.000000E-01  2.750000E+01  4.081584E+01  1.680060E+07  1.680357E+07  9.947595E-01  5.240524E-03  0.000000E+00  1.024000E+03  1.591173E+02  3.393510E-17  2.953714E-01    1 
 5.000000E-01  5.000000E-01  2.850000E+01  4.077490E+01  1.679056E+07  1.679357E+07  9.946951E-01  5.304893E-03  0.000000E+00  1.024000E+03  1.590541E+02  3.394033E-17  2.956076E-01    1 
 5.000000E-01  5.000000E-01  2.950000E+01  4.073397E+01  1.678053E+07  1.678357E+07  9.946299E-01  5.370089E-03  0.000000E+00  1.024000E+03  1.589909E+02  3.394556E-17  2.958440E-01    1 
 5.000000E-01  5.000000E-01  3.050000E+01  4.069303E+01  1.677049E+07  1.677356E+07  9.945639E-01  5.436110E-03  0.000000E+00  1.024000E+03  1.589278E+02  3.395080E-17  2.960806E-01    1 
 5.000000E-01  5.000000E-01  3.150000E+01  4.065210E+01  1.676045E+07  1.676356E+07  9.944971E-01  5.502945E-03  0.000000E+00  1.024000E+03  1.588645E+02  3.395604E-17  2.963173E-01    1 
 5.000000E-01  5.000000E-01  3.250000E+01  4.061118E+01  1.675042E+07  1.675356E+07  9.944294E-01  5.570581E-03  0.000000E+00  1.024000E+03  1.588013E+02  3.396129E-17  2.965543E-01    1 
 5.000000E-01  5.000000E-01  3.350000E+01  4.057025E+01  1.674038E+07  1.674356E+07  9.943610E-01  5.638995E-03  0.000000E+00  1.024000E+03  1.587380E+02  3.396654E-17  2.967915E-01    1 
 5.000000E-01  5.000000E-01  3.450000E+01  4.052933E+01  1.673034E+07  1.673356E+07  9.942918E-01  5.708162E-03  0.000000E+00  1.024000E+03  1.586747E+02  3.397180E-17  2.970288E-01    1 
 5.000000E-01  5.000000E-01  3.550000E+01  4.048841E+01  1.672031E+07  1.672356E+07  9.942220E-01  5.778050E-03  0.000000E+00  1.024000E+03  1.586114E+02  3.397706E-17  2.972663E-01    1 
 5.000000E-01  5.000000E-01  3.650000E+01  4.044750E+01  1.671027E+07  1.671356E+07  9.941514E-01  5.848623E-03  0.000000E+00  1.024000E+03  1.585481E+02  3.398233E-17  2.975040E-01    1 
 5.000000E-01  5.000000E-01  3.750000E+01  4.040659E+01  1.670023E+07  1.670356E+07  9.940802E-01  5.919839E-03  0.000000E+00  1.024000E+03  1.584847E+02  3.398760E-17  2.977419E-01    1 
 5.000000E-01  5.000000E-01  3.850000E+01  4.036568E+01  1.669020E+07  1.669356E+07  9.940083E-01  5.991654E-03  0.000000E+00  1.024000E+03  1.584213E+02  3.399288E-17  2.979800E-01    1 
 5.000000E-01  5.000000E-01  3.950000E+01  4.032477E+01  1.668016E+07  1.668356E+07  9.939360E-01  6.064017E-03  0.000000E+00  1.024000E+03  1.583579E+02  3.399816E-17  2.982183E-01    1 
 5.000000E-01  5.000000E-01  4.050000E+01  4.028387E+01  1.667012E+07  1.667356E+07  9.938631E-01  6.136876E-03  0.000000E+00  1.024000E+03  1.582945E+02  3.400345E-17  2.984568E-01    1 
 5.000000E-01  5.000000E-01  4.150000E+01  4.024297E+01  1.666008E+07  1.666356E+07  9.937898E-01  6.210172E-03  0.000000E+00  1.024000E+03  1.582310E+02  3.400874E-17  2.986955E-01    1 
 5.000000E-01  5.000000E-01  4.250000E+01  4.020208E+01  1.665005E+07  1.665356E+07  9.937162E-01  6.283844E-03  0.000000E+00  1.024000E+03  1.581675E+02  3.401404E-17  2.989343E-01    1 
 5.000000E-01  5.000000E-01  4.350000E+01  4.016119E+01  1.664001E+07  1.664356E+07  9.936422E-01  6.357823E-03  0.000000E+00  1.024000E+03  1.581040E+02  3.401934E-17  2.991734E-01    1 
 5.000000E-01  5.000000E-01  4.450000E+01  4.012030E+01  1.662997E+07  1.663356E+07  9.935680E-01  6.432039E-03  0.000000E+00  1.024000E+03  1.580404E+02  3.402465E-17  2.994126E-01    1 
 5.000000E-01  5.000000E-01  4.550000E+01  4.007941E+01  1.661994E+07  1.662356E+07  9.934936E-01  6.506415E-03  0.000000E+00  1.024000E+03  1.579768E+02  3.402996E-17  2.996521E-01    1 
 5.000000E-01  5.000000E-01  4.650000E+01  4.003853E+01  1.660990E+07  1.661356E+07  9.934191E-01  6.580871E-03  0.000000E+00  1.024000E+03  1.579132E+02  3.403528E-17  2.998917E-01    1 
 5.000000E-01  5.000000E-01  4.750000E+01  3.999765E+01  1.659986E+07  1.660356E+07  9.933447E-01  6.655321E-03  0.000000E+00  1.024000E+03  1.578496E+02  3.404060E-17  3.001315E-01    1 
 5.000000E-01  5.000000E-01  4.850000E+01  3.995677E+01  1.658982E+07  1.659356E+07  9.932703E-01  6.729676E-03  0.000000E+00  1.024000E+03  1.577860E+02  3.404593E-17  3.003715E-01    1 
 5.000000E-01  5.000000E-01  4.950000E+01  3.991590E+01  1.657979E+07  1.658356E+07  9.931962E-01  6.803846E-03  0.000000E+00  1.024000E+03  1.577223E+02  3.405126E-17  3.006117E-01    1 
 5.000000E-01  5.000000E-01  5.050000E+01  3.987503E+01  1.656975E+07  1.657356E+07  9.931223E-01  6.877736E-03  0.000000E+00  1.024000E+03  1.576586E+02  3.405660E-17  3.008521E-01    1 
 5.000000E-01  5.000000E-01  5.150000E+01  3.983416E+01  1.655971E+07  1.656356E+07  9.930487E-01  6.951255E-03  0.000000E+00  1.024000E+03  1.575948E+02  3.406195E-17  3.010927E-01    1 
 5.000000E-01  5.000000E-01  5.250000E+01  3.979330E+01  1.654967E+07  1.655356E+07  9.929757E-01  7.024310E-03  0.000000E+00  1.024000E+03  1.575310E+02  3.406729E-17  3.013335E-01    1 
 5.000000E-01  5.000000E-01  5.350000E+01  3.975244E+01  1.653963E+07  1.654355E+07  9.929032E-01  7.096816E-03  0.000000E+00  1.024000E+03  1.574672E+02  3.407265E-17  3.015744E-01    1 
 5.000000E-01  5.000000E-01  5.450000E+01  3.971158E+01  1.652960E+07  1.653355E+07  9.928313E-01  7.168690E-03  0.000000E+00  1.024000E+03  1.574034E+02  3.407801E-17  3.018156E-01    1 
 5.000000E-01  5.000000E-01  5.550000E+01  3.967073E+01  1.651956E+07  1.652355E+07  9.927601E-01  7.239858E-03  0.000000E+00  1.024000E+03  1.573395E+02  3.408337E-17  3.020570E-01    1 
 5.000000E-01  5.000000E-01  5.650000E+01  3.962988E+01  1.650952E+07  1.651355E+07  9.926897E-01  7.310256E-03  0.000000E+00  1.024000E+03  1.572756E+02  3.408874E-17  3.022985E-01    1 
 5.000000E-01  5.000000E-01  5.750000E+01  3.958903E+01  1.649948E+07  1.650354E+07  9.926202E-01  7.379830E-03  0.000000E+00  1.024000E+03  1.572117E+02  3.409411E-17  3.025403E-01    1 
 5.000000E-01  5.000000E-01  5.850000E+01  3.954819E+01  1.648945E+07  1.649354E+07  9.925515E-01  7.448538E-03  0.000000E+00  1.024000E+03  1.571477E+02  3.409949E-17  3.027822E-01    1 
 5.000000E-01  5.000000E-01  5.950000E+01  3.950735E+01  1.647941E+07  1.648353E+07  9.924836E-01  7.516350E-03  0.000000E+00  1.024000E+03  1.570837E+02  3.410488E-17  3.030243E-01    1 
 5.000000E-01  5.000000E-01  6.050000E+01  3.946651E+01  1.646937E+07  1.647353E+07  9.924167E-01  7.583250E-03  0.000000E+00  1.024000E+03  1.570197E+02  3.411027E-17  3.032666E-01    1 
 5.000000E-01  5.000000E-01  6.150000E+01  3.942568E+01  1.645933E+07  1.646352E+07  9.923508E-01  7.649234E-03  0.000000E+00  1.024000E+03  1.569557E+02  3.411566E-17  3.035092E-01    1 
 5.000000E-01  5.000000E-01  6.250000E+01  3.938484E+01  1.644929E+07  1.645351E+07  9.922857E-01  7.714310E-03  0.000000E+00  1.024000E+03  1.568916E+02  3.412106E-17  3.037519E-01    1 
 5.000000E-01  5.000000E-01  6.350000E+01  3.934402E+01  1.643925E+07  1.644351E+07  9.922215E-01  7.778495E-03  0.000000E+00  1.024000E+03  1.568274E+02  3.412647E-17  3.039948E-01    1 
 5.000000E-01  5.000000E-01  6.450000E+01  3.930319E+01  1.642922E+07  1.643350E+07  9.921582E-01  7.841819E-03  0.000000E+00  1.024000E+03  1.567633E+02  3.413188E-17  3.042379E-01    1 
 5.000000E-01  5.000000E-01  6.550000E+01  3.926237E+01  1.641918E+07  1.642349E+07  9.920957E-01  7.904317E-03  0.000000E+00  1.024000E+03  1.566991E+02  3.413729E-17  3.044812E-01    1 
 5.000000E-01  5.000000E-01  6.650000E+01  3.922155E+01  1.640914E+07  1.641348E+07  9.920340E-01  7.966030E-03  0.000000E+00  1.024000E+03  1.566349E+02  3.414271E-17  3.047247E-01    1 
 5.000000E-01  5.000000E-01  6.750000E+01  3.918074E+01  1.639910E+07  1.640347E+07  9.919730E-01  8.027007E-03  0.000000E+00  1.024000E+03  1.565707E+02  3.414814E-17  3.049683E-01    1 
 5.000000E-01  5.000000E-01  6.850000E+01  3.913993E+01  1.638906E+07  1.639346E+07  9.919127E-01  8.087295E-03  0.000000E+00  1.024000E+03  1.565064E+02  3.415357E-17  3.052122E-01    1 
 5.000000E-01  5.000000E-01  6.950000E+01  3.909912E+01  1.637902E+07  1.638345E+07  9.918531E-01  8.146945E-03  0.000000E+00  1.024000E+03  1.564421E+02  3.415901E-17  3.054563E-01    1 
 5.000000E-01  5.000000E-01  7.050000E+01  3.905831E+01  1.636898E+07  1.637344E+07  9.917940E-01  8.206010E-03  0.000000E+00  1.024000E+03  1.563777E+02  3.416445E-17  3.057006E-01    1 
 5.000000E-01  5.000000E-01  7.150000E+01  3.901751E+01  1.635895E+07  1.636343E+07  9.917355E-01  8.264538E-03  0.000000E+00  1.024000E+03  1.563134E+02  3.416989E-17  3.059450E-01    1 
 5.000000E-01  5.000000E-01  7.250000E+01  3.897671E+01  1.634891E+07  1.635342E+07  9.916774E-01  8.322579E-03  0.000000E+00  1.024000E+03  1.562490E+02  3.417535E-17  3.061897E-01    1 
 5.000000E-01  5.000000E-01  7.350000E+01  3.893592E+01  1.633887E+07  1.634341E+07  9.916198E-01  8.380179E-03  0.000000E+00  1.024000E+03  1.561846E+02  3.418080E-17  3.064345E-01    1 
 5.000000E-01  5.000000E-01  7.450000E+01  3.889513E+01  1.632883E+07  1.633340E+07  9.915626E-01  8.437383E-03  0.000000E+00  1.024000E+03  1.561201E+02  3.418627E-17  3.066796E-01    1 
 5.000000E-01  5.000000E-01  7.550000E+01  3.885434E+01  1.631879E+07  1.632339E+07  9.915058E-01  8.494233E-03  0.000000E+00  1.024000E+03  1.560556E+02  3.419173E-17  3.069248E-01    1 
 5.000000E-01  5.000000E-01  7.650000E+01  3.881355E+01  1.630875E+07  1.631337E+07  9.914492E-01  8.550770E-03  0.000000E+00  1.024000E+03  1.559911E+02  3.419721E-17  3.071703E-01    1 
 5.000000E-01  5.000000E-01  7.750000E+01  3.877277E+01  1.629871E+07  1.630336E+07  9.913930E-01  8.607030E-03  0.000000E+00  1.024000E+03  1.559266E+02  3.420268E-17  3.074159E-01    1 
 5.000000E-01  5.000000E-01  7.850000E+01  3.873199E+01  1.628867E+07  1.629335E+07  9.913369E-01  8.663050E-03  0.000000E+00  1.024000E+03  1.558620E+02  3.420817E-17  3.076617E-01    1 
 5.000000E-01  5.000000E-01  7.950000E+01  3.869122E+01  1.627863E+07  1.628333E+07  9.912811E-01  8.718866E-03  0.000000E+00  1.024000E+03  1.557974E+02  3.421366E-17  3.079078E-01    1 
 5.000000E-01  5.000000E-01  8.050000E+01  3.865045E+01  1.626859E+07  1.627332E+07  9.912255E-01  8.774512E-03  0.000000E+00  1.024000E+03  1.557328E+02  3.421915E-17  3.081540E-01    1 
 5.000000E-01  5.000000E-01  8.150000E+01  3.860968E+01  1.625856E+07  1.626331E+07  9.911700E-01  8.830019E-03  0.000000E+00  1.024000E+03  1.556681E+02  3.422465E-17  3.084004E-01    1 
 5.000000E-01  5.000000E-01  8.250000E+01  3.856891E+01  1.624852E+07  1.625329E+07  9.911146E-01  8.885422E-03  0.000000E+00  1.024000E+03  1.556034E+02  3.423015E-17  3.086470E-01    1 
 5.000000E-01  5.000000E-01  8.350000E+01  3.852815E+01  1.623848E+07  1.624328E+07  9.910592E-01  8.940752E-03  0.000000E+00  1.024000E+03  1.555387E+02  3.423566E-17  3.088939E-01    1 
 5.000000E-01  5.000000E-01  8.450000E+01  3.848740E+01  1.622844E+07  1.623327E+07  9.910040E-01  8.996041E-03  0.000000E+00  1.024000E+03  1.554740E+02  3.424118E-17  3.091409E-01    1 
 5.000000E-01  5.000000E-01  8.550000E+01  3.844664E+01  1.621840E+07  1.622325E+07  9.909487E-01  9.051321E-03  0.000000E+00  1.024000E+03  1.554092E+02  3.424670E-17  3.093881E-01    1 
 5.000000E-01  5.000000E-01  8.650000E+01  3.840589E+01  1.620836E+07  1.621324E+07  9.908934E-01  9.106623E-03  0.000000E+00  1.024000E+03  1.553444E+02  3.425222E-17  3.096355E-01    1 
 5.000000E-01  5.000000E-01  8.750000E+01  3.836514E+01  1.619832E+07  1.620323E+07  9.908380E-01  9.161980E-03  0.000000E+00  1.024000E+03  1.552796E+02  3.425775E-17  3.098831E-01    1 
 5.000000E-01  5.000000E-01  8.850000E+01  3.832440E+01  1.618828E+07  1.619321E+07  9.907826E-01  9.217423E-03  0.000000E+00  1.024000E+03  1.552147E+02  3.426329E-17  3.101309E-01    1 
 5.000000E-01  5.000000E-01  8.950000E+01  3.828366E+01  1.617824E+07  1.618320E+07  9.907270E-01  9.272983E-03  0.000000E+00  1.024000E+03  1.551498E+02  3.426883E-17  3.103789E-01    1 
 5.000000E-01  5.000000E-01  9.050000E+01  3.824292E+01  1.616820E+07  1.617318E+07  9.906713E-01  9.328691E-03  0.000000E+00  1.024000E+03  1.550849E+02  3.427438E-17  3.106271E-01    1 
 5.000000E-01  5.000000E-01  9.150000E+01  3.820218E+01  1.615816E+07  1.616317E+07  9.906154E-01  9.384580E-03  0.000000E+00  1.024000E+03  1.550200E+02  3.427993E-17  3.108755E-01    1 
 5.000000E-01  5.000000E-01  9.250000E+01  3.816145E+01  1.614812E+07  1.615315E+07  9.905593E-01  9.440679E-03  0.000000E+00  1.024000E+03  1.549550E+02  3.428549E-17  3.111241E-01    1 
 5.000000E-01  5.000000E-01  9.350000E+01  3.812072E+01  1.613808E+07  1.614314E+07  9.905030E-01  9.497020E-03  0.000000E+00  1.024000E+03  1.548900E+02  3.429105E-17  3.113729E-01    1 
 5.000000E-01  5.000000E-01  9.450000E+01  3.808000E+01  1.612804E+07  1.613313E+07  9.904464E-01  9.553634E-03  0.000000E+00  1.024000E+03  1.548250E+02  3.429662E-17  3.116219E-01    1 
 5.000000E-01  5.000000E-01  9.550000E+01  3.803928E+01  1.611800E+07  1.612311E+07  9.903895E-01  9.610549E-03  0.000000E+00  1.024000E+03  1.547599E+02  3.430219E-17  3.118711E-01    1 
 5.000000E-01  5.000000E-01  9.650000E+01  3.799856E+01  1.610796E+07  1.611310E+07  9.903322E-01  9.667798E-03  0.000000E+00  1.024000E+03  1.546949E+02  3.430777E-17  3.121205E-01    1 
 5.000000E-01  5.000000E-01  9.750000E+01  3.795785E+01  1.609792E+07  1.610308E+07  9.902746E-01  9.725408E-03  0.000000E+00  1.024000E+03  1.546298E+02  3.431336E-17  3.123701E-01    1 
 5.000000E-01  5.000000E-01  9.850000E+01  3.791714E+01  1.608788E+07  1.609307E+07  9.902166E-01  9.783409E-03  0.000000E+00  1.024000E+03  1.545646E+02  3.431895E-17  3.126199E-01    1 
 5.000000E-01  5.000000E-01  9.950000E+01  3.787643E+01  1.607784E+07  1.608306E+07  9.901582E-01  9.841829E-03  0.000000E+00  1.024000E+03  1.544995E+02  3.432454E-17  3.128699E-01    1 
 5.000000E-01  5.000000E-01  1.005000E+02  3.783572E+01  1.606780E+07  1.607304E+07  9.900993E-01  9.900695E-03  0.000000E+00  1.024000E+03  1.544343E+02  3.433014E-17  3.131201E-01    1 
 5.000000E-01  5.000000E-01  1.015000E+02  3.779502E+01  1.605776E+07  1.606303E+07  9.900400E-01  9.960033E-03  0.000000E+00  1.024000E+03  1.543691E+02  3.433575E-17  3.133705E-01    1 
 5.000000E-01  5.000000E-01  1.025000E+02  3.775433E+01  1.604772E+07  1.605302E+07  9.899801E-01  1.001987E-02  0.000000E+00  1.024000E+03  1.543038E+02  3.434136E-17  3.136211E-01    1 
 5.000000E-01  5.000000E-01  1.035000E+02  3.771363E+01  1.603768E+07  1.604300E+07  9.899198E-01  1.008022E-02  0.000000E+00  1.024000E+03  1.542386E+02  3.434698E-17  3.138719E-01    1 
 5.000000E-01  5.000000E-01  1.045000E+02  3.767294E+01  1.602764E+07  1.603299E+07  9.898589E-01  1.014112E-02  0.000000E+00  1.024000E+03  1.541733E+02  3.435260E-17  3.141229E-01    1 
 5.000000E-01  5.000000E-01  1.055000E+02  3.763226E+01  1.601760E+07  1.602298E+07  9.897974E-01  1.020257E-02  0.000000E+00  1.024000E+03  1.541080E+02  3.435823E-17  3.143741E-01    1 
 5.000000E-01  5.000000E-01  1.065000E+02  3.759157E+01  1.600756E+07  1.601296E+07  9.897354E-01  1.026460E-02  0.000000E+00  1.024000E+03  1.540426E+02  3.436386E-17  3.146255E-01    1 
 5.000000E-01  5.000000E-01  1.075000E+02  3.755089E+01  1.599751E+07  1.600295E+07  9.896728E-01  1.032721E-02  0.000000E+00  1.024000E+03  1.539772E+02  3.436950E-17  3.148771E-01    1 
 5.000000E-01  5.000000E-01  1.085000E+02  3.751021E+01  1.598747E+07  1.599294E+07  9.896096E-01  1.039042E-02  0.000000E+00  1.024000E+03  1.539118E+02  3.437514E-17  3.151289E-01    1 
 5.000000E-01  5.000000E-01  1.095000E+02  3.746954E+01  1.597743E+07  1.598292E+07  9.895458E-01  1.045422E-02  0.000000E+00  1.024000E+03  1.538464E+02  3.438079E-17  3.153809E-01    1 
 5.000000E-01  5.000000E-01  1.105000E+02  3.742887E+01  1.596739E+07  1.597291E+07  9.894814E-01  1.051862E-02  0.000000E+00  1.024000E+03  1.537810E+02  3.438645E-17  3.156331E-01    1 
 5.000000E-01  5.000000E-01  1.115000E+02  3.738820E+01  1.595735E+07  1.596290E+07  9.894164E-01  1.058360E-02  0.000000E+00  1.024000E+03  1.537155E+02  3.439211E-17  3.158855E-01    1 
 5.000000E-01  5.000000E-01  1.125000E+02  3.734754E+01  1.594731E+07  1.595289E+07  9.893508E-01  1.064916E-02  0.000000E+00  1.024000E+03  1.536500E+02  3.439777E-17  3.161381E-01    1 
 5.000000E-01  5.000000E-01  1.135000E+02  3.730688E+01  1.593727E+07  1.594287E+07  9.892847E-01  1.071528E-02  0.000000E+00  1.024000E+03  1.535845E+02  3.440344E-17  3.163909E-01    1 
 5.000000E-01  5.000000E-01  1.145000E+02  3.726622E+01  1.592723E+07  1.593286E+07  9.892181E-01  1.078193E-02  0.000000E+00  1.024000E+03  1.535189E+02  3.440912E-17  3.166439E-01    1 
 5.000000E-01  5.000000E-01  1.155000E+02  3.722557E+01  1.591719E+07  1.592285E+07  9.891509E-01  1.084909E-02  0.000000E+00  1.024000E+03  1.534533E+02  3.441480E-17  3.168971E-01    1 
 5.000000E-01  5.000000E-01  1.165000E+02  3.718492E+01  1.590715E+07  1.591284E+07  9.890833E-01  1.091671E-02  0.000000E+00  1.024000E+03  1.533877E+02  3.442049E-17  3.171506E-01    1 
 5.000000E-01  5.000000E-01  1.175000E+02  3.714427E+01  1.589710E+07  1.590283E+07  9.890152E-01  1.098476E-02  0.000000E+00  1.024000E+03  1.533221E+02  3.442618E-17  3.174042E-01    1 
 5.000000E-01  5.000000E-01  1.185000E+02  3.710363E+01  1.588706E+07  1.589281E+07  9.889468E-01  1.105319E-02  0.000000E+00  1.024000E+03  1.532564E+02  3.443188E-17  3.176580E-01    1 
 5.000000E-01  5.000000E-01  1.195000E+02  3.706299E+01  1.587702E+07  1.588280E+07  9.888781E-01  1.112195E-02  0.000000E+00  1.024000E+03  1.531907E+02  3.443758E-17  3.179120E-01    1 
 5.000000E-01  5.000000E-01  1.205000E+02  3.702235E+01  1.586698E+07  1.587279E+07  9.888090E-01  1.119098E-02  0.000000E+00  1.024000E+03  1.531250E+02  3.444329E-17  3.181663E-01    1 
 5.000000E-01  5.000000E-01  1.215000E+02  3.698172E+01  1.585694E+07  1.586278E+07  9.887398E-01  1.126024E-02  0.000000E+00  1.024000E+03  1.530592E+02  3.444901E-17  3.184207E-01    1 
 5.000000E-01  5.000000E-01  1.225000E+02  3.694109E+01  1.584690E+07  1.585277E+07  9.886704E-01  1.132965E-02  0.000000E+00  1.024000E+03  1.529934E+02  3.445473E-17  3.186753E-01    1 
 5.000000E-01  5.000000E-01  1.235000E+02  3.690046E+01  1.583685E+07  1.584275E+07  9.886008E-01  1.139915E-02  0.000000E+00  1.024000E+03  1.529276E+02  3.446046E-17  3.189302E-01    1 
 5.000000E-01  5.000000E-01  1.245000E+02  3.685984E+01  1.582681E+07  1.583274E+07  9.885313E-01  1.146870E-02  0.000000E+00  1.024000E+03  1.528618E+02  3.446619E-17  3.191852E-01    1 
 5.000000E-01  5.000000E-01  1.255000E+02  3.681922E+01  1.581677E+07  1.582273E+07  9.884618E-01  1.153821E-02  0.000000E+00  1.024000E+03  1.527959E+02  3.447192E-17  3.194405E-01    1 
 5.000000E-01  5.000000E-01  1.265000E+02  3.677860E+01  1.580673E+07  1.581272E+07  9.883924E-01  1.160765E-02  0.000000E+00  1.024000E+03  1.527300E+02  3.447767E-17  3.196959E-01    1 
 5.000000E-01  5.000000E-01  1.275000E+02  3.673799E+01  1.579669E+07  1.580270E+07  9.883231E-01  1.167694E-02  0.000000E+00  1.024000E+03  1.526641E+02  3.448342E-17  3.199516E-01    1 
 5.000000E-01  5.000000E-01  1.285000E+02  3.669738E+01  1.578664E+07  1.579269E+07  9.882540E-01  1.174603E-02  0.000000E+00  1.024000E+03  1.525981E+02  3.448917E-17  3.202074E-01    1 
 5.000000E-01  5.000000E-01  1.295000E+02  3.665677E+01  1.577660E+07  1.578268E+07  9.881851E-01  1.181488E-02  0.000000E+00  1.024000E+03  1.525322E+02  3.449493E-17  3.204635E-01    1 
 5.000000E-01  5.000000E-01  1.305000E+02  3.661617E+01  1.576656E+07  1.577266E+07  9.881166E-01  1.188344E-02  0.000000E+00  1.024000E+03  1.524661E+02  3.450069E-17  3.207197E-01    1 
 5.000000E-01  5.000000E-01  1.315000E+02  3.657557E+01  1.575652E+07  1.576265E+07  9.880483E-01  1.195168E-02  0.000000E+00  1.024000E+03  1.524001E+02  3.450646E-17  3.209762E-01    1 
 5.000000E-01  5.000000E-01  1.325000E+02  3.653498E+01  1.574647E+07  1.575264E+07  9.879804E-01  1.201955E-02  0.000000E+00  1.024000E+03  1.523340E+02  3.451224E-17  3.212329E-01    1 
 5.000000E-01  5.000000E-01  1.335000E+02  3.649438E+01  1.573643E+07  1.574262E+07  9.879130E-01  1.208703E-02  0.000000E+00  1.024000E+03  1.522679E+02  3.451802E-17  3.214898E-01    1 
 5.000000E-01  5.000000E-01  1.345000E+02  3.645379E+01  1.572639E+07  1.573261E+07  9.878459E-01  1.215411E-02  0.000000E+00  1.024000E+03  1.522018E+02  3.452381E-17  3.217469E-01    1 
 5.000000E-01  5.000000E-01  1.355000E+02  3.641321E+01  1.571635E+07  1.572259E+07  9.877792E-01  1.222075E-02  0.000000E+00  1.024000E+03  1.521356E+02  3.452960E-17  3.220042E-01    1 
 5.000000E-01  5.000000E-01  1.365000E+02  3.637263E+01  1.570630E+07  1.571258E+07  9.877130E-01  1.228696E-02  0.000000E+00  1.024000E+03  1.520694E+02  3.453540E-17  3.222617E-01    1 
 5.000000E-01  5.000000E-01  1.375000E+02  3.633205E+01  1.569626E+07  1.570256E+07  9.876473E-01  1.235272E-02  0.000000E+00  1.024000E+03  1.520032E+02  3.454121E-17  3.225194E-01    1 
 5.000000E-01  5.000000E-01  1.385000E+02  3.629147E+01  1.568622E+07  1.569255E+07  9.875820E-01  1.241805E-02  0.000000E+00  1.024000E+03  1.519369E+02  3.454701E-17  3.227773E-01    1 
 5.000000E-01  5.000000E-01  1.395000E+02  3.625090E+01  1.567618E+07  1.568253E+07  9.875171E-01  1.248293E-02  0.000000E+00  1.024000E+03  1.518706E+02  3.455283E-17  3.230354E-01    1 
 5.000000E-01  5.000000E-01  1.405000E+02  3.621033E+01  1.566613E+07  1.567251E+07  9.874526E-01  1.254738E-02  0.000000E+00  1.024000E+03  1.518043E+02  3.455865E-17  3.232937E-01    1 
 5.000000E-01  5.000000E-01  1.415000E+02  3.616976E+01  1.565609E+07  1.566250E+07  9.873886E-01  1.261140E-02  0.000000E+00  1.024000E+03  1.517379E+02  3.456448E-17  3.235523E-01    1 
 5.000000E-01  5.000000E-01  1.425000E+02  3.612920E+01  1.564605E+07  1.565248E+07  9.873250E-01  1.267502E-02  0.000000E+00  1.024000E+03  1.516715E+02  3.457031E-17  3.238110E-01    1 
 5.000000E-01  5.000000E-01  1.435000E+02  3.608864E+01  1.563600E+07  1.564246E+07  9.872618E-01  1.273825E-02  0.000000E+00  1.024000E+03  1.516051E+02  3.457615E-17  3.240699E-01    1 
 5.000000E-01  5.000000E-01  1.445000E+02  3.604809E+01  1.562596E+07  1.563244E+07  9.871989E-01  1.280109E-02  0.000000E+00  1.024000E+03  1.515387E+02  3.458199E-17  3.243291E-01    1 
 5.000000E-01  5.000000E-01  1.455000E+02  3.600754E+01  1.561592E+07  1.562242E+07  9.871364E-01  1.286358E-02  0.000000E+00  1.024000E+03  1.514722E+02  3.458784E-17  3.245885E-01    1 
 5.000000E-01  5.000000E-01  1.465000E+02  3.596699E+01  1.560587E+07  1.561241E+07  9.870743E-01  1.292573E-02  0.000000E+00  1.024000E+03  1.514057E+02  3.459370E-17  3.248480E-01    1 
 5.000000E-01  5.000000E-01  1.475000E+02  3.592645E+01  1.559583E+07  1.560239E+07  9.870124E-01  1.298756E-02  0.000000E+00  1.024000E+03  1.513391E+02  3.459956E-17  3.251078E-01    1 
 5.000000E-01  5.000000E-01  1.485000E+02  3.588590E+01  1.558579E+07  1.559237E+07  9.869509E-01  1.304909E-02  0.000000E+00  1.024000E+03  1.512726E+02  3.460542E-17  3.253678E-01    1 
 5.000000E-01  5.000000E-01  1.495000E+02  3.584537E+01  1.557574E+07  1.558235E+07  9.868897E-01  1.311034E-02  0.000000E+00  1.024000E+03  1.512060E+02  3.461129E-17  3.256280E-01    1 
 5.000000E-01  5.000000E-01  1.505000E+02  3.580483E+01  1.556570E+07  1.557233E+07  9.868287E-01  1.317132E-02  0.000000E+00  1.024000E+03  1.511393E+02  3.461717E-17  3.258884E-01    1 
 5.000000E-01  5.000000E-01  1.515000E+02  3.576430E+01  1.555566E+07  1.556231E+07  9.867679E-01  1.323206E-02  0.000000E+00  1.024000E+03  1.510727E+02  3.462306E-17  3.261490E-01    1 
 5.000000E-01  5.000000E-01  1.525000E+02  3.572377E+01  1.554561E+07  1.555229E+07  9.867074E-01  1.329258E-02  0.000000E+00  1.024000E+03  1.510060E+02  3.462894E-17  3.264098E-01    1 
 5.000000E-01  5.000000E-01  1.535000E+02  3.568325E+01  1.553557E+07  1.554227E+07  9.866471E-01  1.335288E-02  0.000000E+00  1.024000E+03  1.509393E+02  3.463484E-17  3.266708E-01    1 
 5.000000E-01  5.000000E-01  1.545000E+02  3.564273E+01  1.552553E+07  1.553225E+07  9.865870E-01  1.341299E-02  0.000000E+00  1.024000E+03  1.508725E+02  3.464074E-17  3.269320E-01    1 
 5.000000E-01  5.000000E-01  1.555000E+02  3.560221E+01  1.551548E+07  1.552223E+07  9.865271E-01  1.347292E-02  0.000000E+00  1.024000E+03  1.508057E+02  3.464665E-17  3.271935E-01    1 
 5.000000E-01  5.000000E-01  1.565000E+02  3.556170E+01  1.550544E+07  1.551221E+07  9.864673E-01  1.353270E-02  0.000000E+00  1.024000E+03  1.507389E+02  3.465256E-17  3.274551E-01    1 