TITLE = "  4.44000E+04 [y]"
VARIABLES="X [m]","Y [m]","Z [m]","Temperature [C]","Liquid Pressure [Pa]","Gas Pressure [Pa]","Liquid Saturation","Gas Saturation","Hydrate Saturation","Liquid Density [kg/m^3]","Gas Density [kg/m^3]","Permeability X [m^2]","Porosity","Material ID"
ZONE T="4.44000E+04", STRANDID=1, SOLUTIONTIME=4.44000E+04, I=1, J=1, K=1000, DATAPACKING=POINT
 5.000000E-01  5.000000E-01  5.000000E-01  4.272386E+01  1.750744E+07  0.000000E+00  1.000000E+00  0.000000E+00  0.000000E+00  1.024000E+03  0.000000E+00  3.379583E-17  2.890648E-01    1 
 5.000000E-01  5.000000E-01  1.500000E+00  4.268285E+01  1.749740E+07  0.000000E+00  1.000000E+00  0.000000E+00  0.000000E+00  1.024000E+03  0.000000E+00  3.380093E-17  2.892959E-01    1 
 5.000000E-01  5.000000E-01  2.500000E+00  4.264185E+01  1.748737E+07  0.000000E+00  1.000000E+00  0.000000E+00  0.000000E+00  1.024000E+03  0.000000E+00  3.380603E-17  2.895273E-01    1 
 5.000000E-01  5.000000E-01  3.500000E+00  4.260086E+01  1.747733E+07  0.000000E+00  1.000000E+00  0.000000E+00  0.000000E+00  1.024000E+03  0.000000E+00  3.381113E-17  2.897588E-01    1 
 5.000000E-01  5.000000E-01  4.500000E+00  4.255987E+01  1.746729E+07  0.000000E+00  1.000000E+00  0.000000E+00  0.000000E+00  1.024000E+03  0.000000E+00  3.381624E-17  2.899905E-01    1 
 5.000000E-01  5.000000E-01  5.500000E+00  4.251888E+01  1.745726E+07  0.000000E+00  1.000000E+00  0.000000E+00  0.000000E+00  1.024000E+03  0.000000E+00  3.382135E-17  2.902224E-01    1 
 5.000000E-01  5.000000E-01  6.500000E+00  4.247790E+01  1.744722E+07  0.000000E+00  1.000000E+00  0.000000E+00  0.000000E+00  1.024000E+03  0.000000E+00  3.382647E-17  2.904545E-01    1 
 5.000000E-01  5.000000E-01  7.500000E+00  4.243692E+01  1.743719E+07  0.000000E+00  1.000000E+00  0.000000E+00  0.000000E+00  1.024000E+03  0.000000E+00  3.383160E-17  2.906868E-01    1 
 5.000000E-01  5.000000E-01  8.500000E+00  4.239595E+01  1.742715E+07  0.000000E+00  1.000000E+00  0.000000E+00  0.000000E+00  1.024000E+03  0.000000E+00  3.383673E-17  2.909192E-01    1 
 5.000000E-01  5.000000E-01  9.500000E+00  4.235498E+01  1.741712E+07  0.000000E+00  1.000000E+00  0.000000E+00  0.000000E+00  1.024000E+03  0.000000E+00  3.384186E-17  2.911519E-01    1 
 5.000000E-01  5.000000E-01  1.050000E+01  4.231401E+01  1.740708E+07  0.000000E+00  1.000000E+00  0.000000E+00  0.000000E+00  1.024000E+03  0.000000E+00  3.384700E-17  2.913847E-01    1 
 5.000000E-01  5.000000E-01  1.150000E+01  4.227306E+01  1.739705E+07  0.000000E+00  1.000000E+00  0.000000E+00  0.000000E+00  1.024000E+03  0.000000E+00  3.385214E-17  2.916177E-01    1 
 5.000000E-01  5.000000E-01  1.250000E+01  4.223210E+01  1.738701E+07  0.000000E+00  1.000000E+00  0.000000E+00  0.000000E+00  1.024000E+03  0.000000E+00  3.385729E-17  2.918509E-01    1 
 5.000000E-01  5.000000E-01  1.350000E+01  4.219115E+01  1.737698E+07  0.000000E+00  1.000000E+00  0.000000E+00  0.000000E+00  1.024000E+03  0.000000E+00  3.386244E-17  2.920843E-01    1 
 5.000000E-01  5.000000E-01  1.450000E+01  4.215020E+01  1.736694E+07  0.000000E+00  1.000000E+00  0.000000E+00  0.000000E+00  1.024000E+03  0.000000E+00  3.386760E-17  2.923179E-01    1 
 5.000000E-01  5.000000E-01  1.550000E+01  4.210926E+01  1.735691E+07  0.000000E+00  1.000000E+00  0.000000E+00  0.000000E+00  1.024000E+03  0.000000E+00  3.387276E-17  2.925516E-01    1 
 5.000000E-01  5.000000E-01  1.650000E+01  4.206832E+01  1.734687E+07  0.000000E+00  1.000000E+00  0.000000E+00  0.000000E+00  1.024000E+03  0.000000E+00  3.387793E-17  2.927856E-01    1 
 5.000000E-01  5.000000E-01  1.750000E+01  4.202739E+01  1.733684E+07  0.000000E+00  1.000000E+00  0.000000E+00  0.000000E+00  1.024000E+03  0.000000E+00  3.388310E-17  2.930197E-01    1 
 5.000000E-01  5.000000E-01  1.850000E+01  4.198646E+01  1.732680E+07  0.000000E+00  1.000000E+00  0.000000E+00  0.000000E+00  1.024000E+03  0.000000E+00  3.388828E-17  2.932541E-01    1 
 5.000000E-01  5.000000E-01  1.950000E+01  4.194554E+01  1.731677E+07  0.000000E+00  1.000000E+00  0.000000E+00  0.000000E+00  1.024000E+03  0.000000E+00  3.389346E-17  2.934886E-01    1 
 5.000000E-01  5.000000E-01  2.050000E+01  4.190462E+01  1.730673E+07  0.000000E+00  1.000000E+00  0.000000E+00  0.000000E+00  1.024000E+03  0.000000E+00  3.389865E-17  2.937233E-01    1 
 5.000000E-01  5.000000E-01  2.150000E+01  4.186370E+01  1.729670E+07  0.000000E+00  1.000000E+00  0.000000E+00  0.000000E+00  1.024000E+03  0.000000E+00  3.390384E-17  2.939581E-01    1 
 5.000000E-01  5.000000E-01  2.250000E+01  4.182279E+01  1.728666E+07  0.000000E+00  1.000000E+00  0.000000E+00  0.000000E+00  1.024000E+03  0.000000E+00  3.390904E-17  2.941932E-01    1 
 5.000000E-01  5.000000E-01  2.350000E+01  4.178189E+01  1.727663E+07  0.000000E+00  1.000000E+00  0.000000E+00  0.000000E+00  1.024000E+03  0.000000E+00  3.391424E-17  2.944285E-01    1 
 5.000000E-01  5.000000E-01  2.450000E+01  4.174099E+01  1.726659E+07  0.000000E+00  1.000000E+00  0.000000E+00  0.000000E+00  1.024000E+03  0.000000E+00  3.391945E-17  2.946639E-01    1 
 5.000000E-01  5.000000E-01  2.550000E+01  4.170009E+01  1.725655E+07  0.000000E+00  1.000000E+00  0.000000E+00  0.000000E+00  1.024000E+03  0.000000E+00  3.392466E-17  2.948996E-01    1 
 5.000000E-01  5.000000E-01  2.650000E+01  4.165920E+01  1.724652E+07  0.000000E+00  1.000000E+00  0.000000E+00  0.000000E+00  1.024000E+03  0.000000E+00  3.392988E-17  2.951354E-01    1 
 5.000000E-01  5.000000E-01  2.750000E+01  4.161831E+01  1.723648E+07  0.000000E+00  1.000000E+00  0.000000E+00  0.000000E+00  1.024000E+03  0.000000E+00  3.393510E-17  2.953714E-01    1 
 5.000000E-01  5.000000E-01  2.850000E+01  4.157742E+01  1.722645E+07  0.000000E+00  1.000000E+00  0.000000E+00  0.000000E+00  1.024000E+03  0.000000E+00  3.394033E-17  2.956076E-01    1 
 5.000000E-01  5.000000E-01  2.950000E+01  4.153655E+01  1.721641E+07  0.000000E+00  1.000000E+00  0.000000E+00  0.000000E+00  1.024000E+03  0.000000E+00  3.394556E-17  2.958440E-01    1 
 5.000000E-01  5.000000E-01  3.050000E+01  4.149567E+01  1.720638E+07  0.000000E+00  1.000000E+00  0.000000E+00  0.000000E+00  1.024000E+03  0.000000E+00  3.395080E-17  2.960806E-01    1 
 5.000000E-01  5.000000E-01  3.150000E+01  4.145480E+01  1.719634E+07  0.000000E+00  1.000000E+00  0.000000E+00  0.000000E+00  1.024000E+03  0.000000E+00  3.395604E-17  2.963173E-01    1 
 5.000000E-01  5.000000E-01  3.250000E+01  4.141394E+01  1.718631E+07  0.000000E+00  1.000000E+00  0.000000E+00  0.000000E+00  1.024000E+03  0.000000E+00  3.396129E-17  2.965543E-01    1 
 5.000000E-01  5.000000E-01  3.350000E+01  4.137308E+01  1.717627E+07  0.000000E+00  1.000000E+00  0.000000E+00  0.000000E+00  1.024000E+03  0.000000E+00  3.396654E-17  2.967915E-01    1 
 5.000000E-01  5.000000E-01  3.450000E+01  4.133222E+01  1.716624E+07  0.000000E+00  1.000000E+00  0.000000E+00  0.000000E+00  1.024000E+03  0.000000E+00  3.397180E-17  2.970288E-01    1 
 5.000000E-01  5.000000E-01  3.550000E+01  4.129137E+01  1.715620E+07  0.000000E+00  1.000000E+00  0.000000E+00  0.000000E+00  1.024000E+03  0.000000E+00  3.397706E-17  2.972663E-01    1 
 5.000000E-01  5.000000E-01  3.650000E+01  4.125052E+01  1.714617E+07  0.000000E+00  1.000000E+00  0.000000E+00  0.000000E+00  1.024000E+03  0.000000E+00  3.398233E-17  2.975040E-01    1 
 5.000000E-01  5.000000E-01  3.750000E+01  4.120968E+01  1.713613E+07  0.000000E+00  1.000000E+00  0.000000E+00  0.000000E+00  1.024000E+03  0.000000E+00  3.398760E-17  2.977419E-01    1 
 5.000000E-01  5.000000E-01  3.850000E+01  4.116884E+01  1.712610E+07  0.000000E+00  1.000000E+00  0.000000E+00  0.000000E+00  1.024000E+03  0.000000E+00  3.399288E-17  2.979800E-01    1 
 5.000000E-01  5.000000E-01  3.950000E+01  4.112801E+01  1.711606E+07  0.000000E+00  1.000000E+00  0.000000E+00  0.000000E+00  1.024000E+03  0.000000E+00  3.399816E-17  2.982183E-01    1 
 5.000000E-01  5.000000E-01  4.050000E+01  4.108718E+01  1.710603E+07  0.000000E+00  1.000000E+00  0.000000E+00  0.000000E+00  1.024000E+03  0.000000E+00  3.400345E-17  2.984568E-01    1 
 5.000000E-01  5.000000E-01  4.150000E+01  4.104635E+01  1.709599E+07  0.000000E+00  1.000000E+00  0.000000E+00  0.000000E+00  1.024000E+03  0.000000E+00  3.400874E-17  2.986955E-01    1 
 5.000000E-01  5.000000E-01  4.250000E+01  4.100553E+01  1.708596E+07  0.000000E+00  1.000000E+00  0.000000E+00  0.000000E+00  1.024000E+03  0.000000E+00  3.401404E-17  2.989343E-01    1 
 5.000000E-01  5.000000E-01  4.350000E+01  4.096472E+01  1.707592E+07  0.000000E+00  1.000000E+00  0.000000E+00  0.000000E+00  1.024000E+03  0.000000E+00  3.401934E-17  2.991734E-01    1 
 5.000000E-01  5.000000E-01  4.450000E+01  4.092391E+01  1.706588E+07  0.000000E+00  1.000000E+00  0.000000E+00  0.000000E+00  1.024000E+03  0.000000E+00  3.402465E-17  2.994126E-01    1 
 5.000000E-01  5.000000E-01  4.550000E+01  4.088310E+01  1.705585E+07  0.000000E+00  1.000000E+00  0.000000E+00  0.000000E+00  1.024000E+03  0.000000E+00  3.402996E-17  2.996521E-01    1 
 5.000000E-01  5.000000E-01  4.650000E+01  4.084230E+01  1.704581E+07  0.000000E+00  1.000000E+00  0.000000E+00  0.000000E+00  1.024000E+03  0.000000E+00  3.403528E-17  2.998917E-01    1 
 5.000000E-01  5.000000E-01  4.750000E+01  4.080150E+01  1.703578E+07  0.000000E+00  1.000000E+00  0.000000E+00  0.000000E+00  1.024000E+03  0.000000E+00  3.404060E-17  3.001315E-01    1 
 5.000000E-01  5.000000E-01  4.850000E+01  4.076071E+01  1.702574E+07  0.000000E+00  1.000000E+00  0.000000E+00  0.000000E+00  1.024000E+03  0.000000E+00  3.404593E-17  3.003715E-01    1 
 5.000000E-01  5.000000E-01  4.950000E+01  4.071992E+01  1.701571E+07  0.000000E+00  1.000000E+00  0.000000E+00  0.000000E+00  1.024000E+03  0.000000E+00  3.405126E-17  3.006117E-01    1 
 5.000000E-01  5.000000E-01  5.050000E+01  4.067914E+01  1.700567E+07  0.000000E+00  1.000000E+00  0.000000E+00  0.000000E+00  1.024000E+03  0.000000E+00  3.405660E-17  3.008521E-01    1 
 5.000000E-01  5.000000E-01  5.150000E+01  4.063836E+01  1.699564E+07  0.000000E+00  1.000000E+00  0.000000E+00  0.000000E+00  1.024000E+03  0.000000E+00  3.406195E-17  3.010927E-01    1 
 5.000000E-01  5.000000E-01  5.250000E+01  4.059758E+01  1.698560E+07  0.000000E+00  1.000000E+00  0.000000E+00  0.000000E+00  1.024000E+03  0.000000E+00  3.406729E-17  3.013335E-01    1 
 5.000000E-01  5.000000E-01  5.350000E+01  4.055681E+01  1.697557E+07  0.000000E+00  1.000000E+00  0.000000E+00  0.000000E+00  1.024000E+03  0.000000E+00  3.407265E-17  3.015744E-01    1 
 5.000000E-01  5.000000E-01  5.450000E+01  4.051605E+01  1.696553E+07  0.000000E+00  1.000000E+00  0.000000E+00  0.000000E+00  1.024000E+03  0.000000E+00  3.407801E-17  3.018156E-01    1 
 5.000000E-01  5.000000E-01  5.550000E+01  4.047529E+01  1.695550E+07  0.000000E+00  1.000000E+00  0.000000E+00  0.000000E+00  1.024000E+03  0.000000E+00  3.408337E-17  3.020570E-01    1 
 5.000000E-01  5.000000E-01  5.650000E+01  4.043453E+01  1.694546E+07  0.000000E+00  1.000000E+00  0.000000E+00  0.000000E+00  1.024000E+03  0.000000E+00  3.408874E-17  3.022985E-01    1 
 5.000000E-01  5.000000E-01  5.750000E+01  4.039378E+01  1.693543E+07  0.000000E+00  1.000000E+00  0.000000E+00  0.000000E+00  1.024000E+03  0.000000E+00  3.409411E-17  3.025403E-01    1 
 5.000000E-01  5.000000E-01  5.850000E+01  4.035303E+01  1.692539E+07  0.000000E+00  1.000000E+00  0.000000E+00  0.000000E+00  1.024000E+03  0.000000E+00  3.409949E-17  3.027822E-01    1 
 5.000000E-01  5.000000E-01  5.950000E+01  4.031229E+01  1.691535E+07  0.000000E+00  1.000000E+00  0.000000E+00  0.000000E+00  1.024000E+03  0.000000E+00  3.410488E-17  3.030243E-01    1 
 5.000000E-01  5.000000E-01  6.050000E+01  4.027155E+01  1.690532E+07  0.000000E+00  1.000000E+00  0.000000E+00  0.000000E+00  1.024000E+03  0.000000E+00  3.411027E-17  3.032666E-01    1 
 5.000000E-01  5.000000E-01  6.150000E+01  4.023082E+01  1.689528E+07  0.000000E+00  1.000000E+00  0.000000E+00  0.000000E+00  1.024000E+03  0.000000E+00  3.411566E-17  3.035092E-01    1 
 5.000000E-01  5.000000E-01  6.250000E+01  4.019009E+01  1.688525E+07  0.000000E+00  1.000000E+00  0.000000E+00  0.000000E+00  1.024000E+03  0.000000E+00  3.412106E-17  3.037519E-01    1 
 5.000000E-01  5.000000E-01  6.350000E+01  4.014937E+01  1.687521E+07  0.000000E+00  1.000000E+00  0.000000E+00  0.000000E+00  1.024000E+03  0.000000E+00  3.412647E-17  3.039948E-01    1 
 5.000000E-01  5.000000E-01  6.450000E+01  4.010865E+01  1.686518E+07  0.000000E+00  1.000000E+00  0.000000E+00  0.000000E+00  1.024000E+03  0.000000E+00  3.413188E-17  3.042379E-01    1 
 5.000000E-01  5.000000E-01  6.550000E+01  4.006793E+01  1.685514E+07  0.000000E+00  1.000000E+00  0.000000E+00  0.000000E+00  1.024000E+03  0.000000E+00  3.413729E-17  3.044812E-01    1 
 5.000000E-01  5.000000E-01  6.650000E+01  4.002722E+01  1.684511E+07  0.000000E+00  1.000000E+00  0.000000E+00  0.000000E+00  1.024000E+03  0.000000E+00  3.414271E-17  3.047247E-01    1 
 5.000000E-01  5.000000E-01  6.750000E+01  3.998652E+01  1.683507E+07  0.000000E+00  1.000000E+00  0.000000E+00  0.000000E+00  1.024000E+03  0.000000E+00  3.414814E-17  3.049683E-01    1 
 5.000000E-01  5.000000E-01  6.850000E+01  3.994581E+01  1.682504E+07  0.000000E+00  1.000000E+00  0.000000E+00  0.000000E+00  1.024000E+03  0.000000E+00  3.415357E-17  3.052122E-01    1 
 5.000000E-01  5.000000E-01  6.950000E+01  3.990512E+01  1.681500E+07  0.000000E+00  1.000000E+00  0.000000E+00  0.000000E+00  1.024000E+03  0.000000E+00  3.415901E-17  3.054563E-01    1 
 5.000000E-01  5.000000E-01  7.050000E+01  3.986443E+01  1.680497E+07  0.000000E+00  1.000000E+00  0.000000E+00  0.000000E+00  1.024000E+03  0.000000E+00  3.416445E-17  3.057006E-01    1 
 5.000000E-01  5.000000E-01  7.150000E+01  3.982374E+01  1.679493E+07  0.000000E+00  1.000000E+00  0.000000E+00  0.000000E+00  1.024000E+03  0.000000E+00  3.416989E-17  3.059450E-01    1 
 5.000000E-01  5.000000E-01  7.250000E+01  3.978306E+01  1.678490E+07  0.000000E+00  1.000000E+00  0.000000E+00  0.000000E+00  1.024000E+03  0.000000E+00  3.417535E-17  3.061897E-01    1 
 5.000000E-01  5.000000E-01  7.350000E+01  3.974238E+01  1.677486E+07  0.000000E+00  1.000000E+00  0.000000E+00  0.000000E+00  1.024000E+03  0.000000E+00  3.418080E-17  3.064345E-01    1 
 5.000000E-01  5.000000E-01  7.450000E+01  3.970170E+01  1.676482E+07  0.000000E+00  1.000000E+00  0.000000E+00  0.000000E+00  1.024000E+03  0.000000E+00  3.418627E-17  3.066796E-01    1 
 5.000000E-01  5.000000E-01  7.550000E+01  3.966104E+01  1.675479E+07  0.000000E+00  1.000000E+00  0.000000E+00  0.000000E+00  1.024000E+03  0.000000E+00  3.419173E-17  3.069248E-01    1 
 5.000000E-01  5.000000E-01  7.650000E+01  3.962037E+01  1.674475E+07  0.000000E+00  1.000000E+00  0.000000E+00  0.000000E+00  1.024000E+03  0.000000E+00  3.419721E-17  3.071703E-01    1 
 5.000000E-01  5.000000E-01  7.750000E+01  3.957971E+01  1.673472E+07  0.000000E+00  1.000000E+00  0.000000E+00  0.000000E+00  1.024000E+03  0.000000E+00  3.420268E-17  3.074159E-01    1 
 5.000000E-01  5.000000E-01  7.850000E+01  3.953906E+01  1.672468E+07  0.000000E+00  1.000000E+00  0.000000E+00  0.000000E+00  1.024000E+03  0.000000E+00  3.420817E-17  3.076617E-01    1 
 5.000000E-01  5.000000E-01  7.950000E+01  3.949841E+01  1.671465E+07  0.000000E+00  1.000000E+00  0.000000E+00  0.000000E+00  1.024000E+03  0.000000E+00  3.421366E-17  3.079078E-01    1 
 5.000000E-01  5.000000E-01  8.050000E+01  3.945776E+01  1.670461E+07  0.000000E+00  1.000000E+00  0.000000E+00  0.000000E+00  1.024000E+03  0.000000E+00  3.421915E-17  3.081540E-01    1 
 5.000000E-01  5.000000E-01  8.150000E+01  3.941712E+01  1.669458E+07  0.000000E+00  1.000000E+00  0.000000E+00  0.000000E+00  1.024000E+03  0.000000E+00  3.422465E-17  3.084004E-01    1 
 5.000000E-01  5.000000E-01  8.250000E+01  3.937648E+01  1.668454E+07  0.000000E+00  1.000000E+00  0.000000E+00  0.000000E+00  1.024000E+03  0.000000E+00  3.423015E-17  3.086470E-01    1 
 5.000000E-01  5.000000E-01  8.350000E+01  3.933585E+01  1.667451E+07  0.000000E+00  1.000000E+00  0.000000E+00  0.000000E+00  1.024000E+03  0.000000E+00  3.423566E-17  3.088939E-01    1 
 5.000000E-01  5.000000E-01  8.450000E+01  3.929523E+01  1.666447E+07  0.000000E+00  1.000000E+00  0.000000E+00  0.000000E+00  1.024000E+03  0.000000E+00  3.424118E-17  3.091409E-01    1 
 5.000000E-01  5.000000E-01  8.550000E+01  3.925460E+01  1.665444E+07  0.000000E+00  1.000000E+00  0.000000E+00  0.000000E+00  1.024000E+03  0.000000E+00  3.424670E-17  3.093881E-01    1 
 5.000000E-01  5.000000E-01  8.650000E+01  3.921399E+01  1.664440E+07  0.000000E+00  1.000000E+00  0.000000E+00  0.000000E+00  1.024000E+03  0.000000E+00  3.425222E-17  3.096355E-01    1 
 5.000000E-01  5.000000E-01  8.750000E+01  3.917337E+01  1.663436E+07  0.000000E+00  1.000000E+00  0.000000E+00  0.000000E+00  1.024000E+03  0.000000E+00  3.425775E-17  3.098831E-01    1 
 5.000000E-01  5.000000E-01  8.850000E+01  3.913276E+01  1.662433E+07  0.000000E+00  1.000000E+00  0.000000E+00  0.000000E+00  1.024000E+03  0.000000E+00  3.426329E-17  3.101309E-01    1 
 5.000000E-01  5.000000E-01  8.950000E+01  3.909216E+01  1.661429E+07  0.000000E+00  1.000000E+00  0.000000E+00  0.000000E+00  1.024000E+03  0.000000E+00  3.426883E-17  3.103789E-01    1 
 5.000000E-01  5.000000E-01  9.050000E+01  3.905156E+01  1.660426E+07  0.000000E+00  1.000000E+00  0.000000E+00  0.000000E+00  1.024000E+03  0.000000E+00  3.427438E-17  3.106271E-01    1 
 5.000000E-01  5.000000E-01  9.150000E+01  3.901097E+01  1.659422E+07  0.000000E+00  1.000000E+00  0.000000E+00  0.000000E+00  1.024000E+03  0.000000E+00  3.427993E-17  3.108755E-01    1 
 5.000000E-01  5.000000E-01  9.250000E+01  3.897038E+01  1.658419E+07  0.000000E+00  1.000000E+00  0.000000E+00  0.000000E+00  1.024000E+03  0.000000E+00  3.428549E-17  3.111241E-01    1 
 5.000000E-01  5.000000E-01  9.350000E+01  3.892979E+01  1.657415E+07  0.000000E+00  1.000000E+00  0.000000E+00  0.000000E+00  1.024000E+03  0.000000E+00  3.429105E-17  3.113729E-01    1 
 5.000000E-01  5.000000E-01  9.450000E+01  3.888921E+01  1.656412E+07  0.000000E+00  1.000000E+00  0.000000E+00  0.000000E+00  1.024000E+03  0.000000E+00  3.429662E-17  3.116219E-01    1 
 5.000000E-01  5.000000E-01  9.550000E+01  3.884863E+01  1.655408E+07  0.000000E+00  1.000000E+00  0.000000E+00  0.000000E+00  1.024000E+03  0.000000E+00  3.430219E-17  3.118711E-01    1 
 5.000000E-01  5.000000E-01  9.650000E+01  3.880806E+01  1.654405E+07  0.000000E+00  1.000000E+00  0.000000E+00  0.000000E+00  1.024000E+03  0.000000E+00  3.430777E-17  3.121205E-01    1 
 5.000000E-01  5.000000E-01  9.750000E+01  3.876750E+01  1.653401E+07  0.000000E+00  1.000000E+00  0.000000E+00  0.000000E+00  1.024000E+03  0.000000E+00  3.431336E-17  3.123701E-01    1 
 5.000000E-01  5.000000E-01  9.850000E+01  3.872694E+01  1.652397E+07  0.000000E+00  1.000000E+00  0.000000E+00  0.000000E+00  1.024000E+03  0.000000E+00  3.431895E-17  3.126199E-01    1 
 5.000000E-01  5.000000E-01  9.950000E+01  3.868638E+01  1.651394E+07  1.651398E+07  9.999389E-01  6.109889E-05  0.000000E+00  1.024000E+03  1.576864E+02  3.432454E-17  3.128699E-01    1 
 5.000000E-01  5.000000E-01  1.005000E+02  3.864582E+01  1.650390E+07  1.650398E+07  9.998831E-01  1.168900E-04  0.000000E+00  1.024000E+03  1.576223E+02  3.433014E-17  3.131201E-01    1 
 5.000000E-01  5.000000E-01  1.015000E+02  3.860528E+01  1.649387E+07  1.649398E+07  9.998206E-01  1.794037E-04  0.000000E+00  1.024000E+03  1.575582E+02  3.433575E-17  3.133705E-01    1 
 5.000000E-01  5.000000E-01  1.025000E+02  3.856473E+01  1.648383E+07  1.648399E+07  9.997462E-01  2.537502E-04  0.000000E+00  1.024000E+03  1.574941E+02  3.434136E-17  3.136211E-01    1 
 5.000000E-01  5.000000E-01  1.035000E+02  3.852419E+01  1.647380E+07  1.647400E+07  9.996699E-01  3.300606E-04  0.000000E+00  1.024000E+03  1.574300E+02  3.434698E-17  3.138719E-01    1 
 5.000000E-01  5.000000E-01  1.045000E+02  3.848366E+01  1.646376E+07  1.646401E+07  9.995936E-01  4.063892E-04  0.000000E+00  1.024000E+03  1.573659E+02  3.435260E-17  3.141229E-01    1 
 5.000000E-01  5.000000E-01  1.055000E+02  3.844313E+01  1.645373E+07  1.645402E+07  9.995186E-01  4.813513E-04  0.000000E+00  1.024000E+03  1.573017E+02  3.435823E-17  3.143741E-01    1 
 5.000000E-01  5.000000E-01  1.065000E+02  3.840260E+01  1.644369E+07  1.644402E+07  9.994492E-01  5.508097E-04  0.000000E+00  1.024000E+03  1.572375E+02  3.436386E-17  3.146255E-01    1 
 5.000000E-01  5.000000E-01  1.075000E+02  3.836208E+01  1.643365E+07  1.643403E+07  9.993838E-01  6.161654E-04  0.000000E+00  1.024000E+03  1.571732E+02  3.436950E-17  3.148771E-01    1 
 5.000000E-01  5.000000E-01  1.085000E+02  3.832156E+01  1.642362E+07  1.642403E+07  9.993207E-01  6.792687E-04  0.000000E+00  1.024000E+03  1.571089E+02  3.437514E-17  3.151289E-01    1 
 5.000000E-01  5.000000E-01  1.095000E+02  3.828104E+01  1.641358E+07  1.641403E+07  9.992580E-01  7.420019E-04  0.000000E+00  1.024000E+03  1.570445E+02  3.438079E-17  3.153809E-01    1 
 5.000000E-01  5.000000E-01  1.105000E+02  3.824054E+01  1.640355E+07  1.640403E+07  9.991943E-01  8.056861E-04  0.000000E+00  1.024000E+03  1.569802E+02  3.438645E-17  3.156331E-01    1 
 5.000000E-01  5.000000E-01  1.115000E+02  3.820003E+01  1.639351E+07  1.639403E+07  9.991290E-01  8.710293E-04  0.000000E+00  1.024000E+03  1.569158E+02  3.439211E-17  3.158855E-01    1 
 5.000000E-01  5.000000E-01  1.125000E+02  3.815953E+01  1.638347E+07  1.638404E+07  9.990615E-01  9.385151E-04  0.000000E+00  1.024000E+03  1.568514E+02  3.439777E-17  3.161381E-01    1 
 5.000000E-01  5.000000E-01  1.135000E+02  3.811903E+01  1.637344E+07  1.637404E+07  9.989914E-01  1.008627E-03  0.000000E+00  1.024000E+03  1.567869E+02  3.440344E-17  3.163909E-01    1 
 5.000000E-01  5.000000E-01  1.145000E+02  3.807854E+01  1.636340E+07  1.636405E+07  9.989182E-01  1.081798E-03  0.000000E+00  1.024000E+03  1.567225E+02  3.440912E-17  3.166439E-01    1 
 5.000000E-01  5.000000E-01  1.155000E+02  3.803806E+01  1.635336E+07  1.635406E+07  9.988417E-01  1.158264E-03  0.000000E+00  1.024000E+03  1.566581E+02  3.441480E-17  3.168971E-01    1 
 5.000000E-01  5.000000E-01  1.165000E+02  3.799757E+01  1.634333E+07  1.634407E+07  9.987621E-01  1.237896E-03  0.000000E+00  1.024000E+03  1.565936E+02  3.442049E-17  3.171506E-01    1 
 5.000000E-01  5.000000E-01  1.175000E+02  3.795709E+01  1.633329E+07  1.633408E+07  9.986799E-01  1.320107E-03  0.000000E+00  1.024000E+03  1.565291E+02  3.442618E-17  3.174042E-01    1 
 5.000000E-01  5.000000E-01  1.185000E+02  3.791662E+01  1.632325E+07  1.632409E+07  9.985961E-01  1.403870E-03  0.000000E+00  1.024000E+03  1.564646E+02  3.443188E-17  3.176580E-01    1 
 5.000000E-01  5.000000E-01  1.195000E+02  3.787615E+01  1.631322E+07  1.631411E+07  9.985122E-01  1.487849E-03  0.000000E+00  1.024000E+03  1.564001E+02  3.443758E-17  3.179120E-01    1 
 5.000000E-01  5.000000E-01  1.205000E+02  3.783569E+01  1.630318E+07  1.630412E+07  9.984294E-01  1.570596E-03  0.000000E+00  1.024000E+03  1.563355E+02  3.444329E-17  3.181663E-01    1 
 5.000000E-01  5.000000E-01  1.215000E+02  3.779522E+01  1.629314E+07  1.629413E+07  9.983492E-01  1.650775E-03  0.000000E+00  1.024000E+03  1.562709E+02  3.444901E-17  3.184207E-01    1 
 5.000000E-01  5.000000E-01  1.225000E+02  3.775477E+01  1.628311E+07  1.628413E+07  9.982726E-01  1.727372E-03  0.000000E+00  1.024000E+03  1.562062E+02  3.445473E-17  3.186753E-01    1 
 5.000000E-01  5.000000E-01  1.235000E+02  3.771431E+01  1.627307E+07  1.627414E+07  9.982002E-01  1.799831E-03  0.000000E+00  1.024000E+03  1.561415E+02  3.446046E-17  3.189302E-01    1 
 5.000000E-01  5.000000E-01  1.245000E+02  3.767387E+01  1.626303E+07  1.626414E+07  9.981319E-01  1.868087E-03  0.000000E+00  1.024000E+03  1.560768E+02  3.446619E-17  3.191852E-01    1 
 5.000000E-01  5.000000E-01  1.255000E+02  3.763342E+01  1.625299E+07  1.625414E+07  9.980675E-01  1.932502E-03  0.000000E+00  1.024000E+03  1.560120E+02  3.447192E-17  3.194405E-01    1 
 5.000000E-01  5.000000E-01  1.265000E+02  3.759298E+01  1.624296E+07  1.624414E+07  9.980063E-01  1.993720E-03  0.000000E+00  1.024000E+03  1.559472E+02  3.447767E-17  3.196959E-01    1 
 5.000000E-01  5.000000E-01  1.275000E+02  3.755255E+01  1.623292E+07  1.623414E+07  9.979475E-01  2.052498E-03  0.000000E+00  1.024000E+03  1.558823E+02  3.448342E-17  3.199516E-01    1 
 5.000000E-01  5.000000E-01  1.285000E+02  3.751212E+01  1.622288E+07  1.622413E+07  9.978904E-01  2.109563E-03  0.000000E+00  1.024000E+03  1.558174E+02  3.448917E-17  3.202074E-01    1 
 5.000000E-01  5.000000E-01  1.295000E+02  3.747169E+01  1.621284E+07  1.621413E+07  9.978345E-01  2.165515E-03  0.000000E+00  1.024000E+03  1.557524E+02  3.449493E-17  3.204635E-01    1 
 5.000000E-01  5.000000E-01  1.305000E+02  3.743127E+01  1.620281E+07  1.620412E+07  9.977792E-01  2.220781E-03  0.000000E+00  1.024000E+03  1.556874E+02  3.450069E-17  3.207197E-01    1 
 5.000000E-01  5.000000E-01  1.315000E+02  3.739085E+01  1.619277E+07  1.619411E+07  9.977244E-01  2.275621E-03  0.000000E+00  1.024000E+03  1.556224E+02  3.450646E-17  3.209762E-01    1 
 5.000000E-01  5.000000E-01  1.325000E+02  3.735044E+01  1.618273E+07  1.618411E+07  9.976698E-01  2.330160E-03  0.000000E+00  1.024000E+03  1.555573E+02  3.451224E-17  3.212329E-01    1 
 5.000000E-01  5.000000E-01  1.335000E+02  3.731003E+01  1.617269E+07  1.617410E+07  9.976156E-01  2.384425E-03  0.000000E+00  1.024000E+03  1.554923E+02  3.451802E-17  3.214898E-01    1 
 5.000000E-01  5.000000E-01  1.345000E+02  3.726963E+01  1.616266E+07  1.616409E+07  9.975616E-01  2.438387E-03  0.000000E+00  1.024000E+03  1.554272E+02  3.452381E-17  3.217469E-01    1 
 5.000000E-01  5.000000E-01  1.355000E+02  3.722923E+01  1.615262E+07  1.615409E+07  9.975080E-01  2.491987E-03  0.000000E+00  1.024000E+03  1.553620E+02  3.452960E-17  3.220042E-01    1 
 5.000000E-01  5.000000E-01  1.365000E+02  3.718884E+01  1.614258E+07  1.614408E+07  9.974548E-01  2.545162E-03  0.000000E+00  1.024000E+03  1.552969E+02  3.453540E-17  3.222617E-01    1 
 5.000000E-01  5.000000E-01  1.375000E+02  3.714845E+01  1.613254E+07  1.613407E+07  9.974022E-01  2.597850E-03  0.000000E+00  1.024000E+03  1.552317E+02  3.454121E-17  3.225194E-01    1 
 5.000000E-01  5.000000E-01  1.385000E+02  3.710806E+01  1.612250E+07  1.612406E+07  9.973500E-01  2.650005E-03  0.000000E+00  1.024000E+03  1.551664E+02  3.454701E-17  3.227773E-01    1 
 5.000000E-01  5.000000E-01  1.395000E+02  3.706768E+01  1.611247E+07  1.611405E+07  9.972984E-01  2.701598E-03  0.000000E+00  1.024000E+03  1.551012E+02  3.455283E-17  3.230354E-01    1 
 5.000000E-01  5.000000E-01  1.405000E+02  3.702730E+01  1.610243E+07  1.610404E+07  9.972474E-01  2.752622E-03  0.000000E+00  1.024000E+03  1.550359E+02  3.455865E-17  3.232937E-01    1 
 5.000000E-01  5.000000E-01  1.415000E+02  3.698693E+01  1.609239E+07  1.609403E+07  9.971969E-01  2.803089E-03  0.000000E+00  1.024000E+03  1.549705E+02  3.456448E-17  3.235523E-01    1 
 5.000000E-01  5.000000E-01  1.425000E+02  3.694656E+01  1.608235E+07  1.608402E+07  9.971470E-01  2.853029E-03  0.000000E+00  1.024000E+03  1.549052E+02  3.457031E-17  3.238110E-01    1 
 5.000000E-01  5.000000E-01  1.435000E+02  3.690620E+01  1.607231E+07  1.607401E+07  9.970975E-01  2.902485E-03  0.000000E+00  1.024000E+03  1.548398E+02  3.457615E-17  3.240699E-01    1 
 5.000000E-01  5.000000E-01  1.445000E+02  3.686584E+01  1.606227E+07  1.606400E+07  9.970485E-01  2.951512E-03  0.000000E+00  1.024000E+03  1.547744E+02  3.458199E-17  3.243291E-01    1 
 5.000000E-01  5.000000E-01  1.455000E+02  3.682549E+01  1.605224E+07  1.605399E+07  9.969998E-01  3.000168E-03  0.000000E+00  1.024000E+03  1.547089E+02  3.458784E-17  3.245885E-01    1 
 5.000000E-01  5.000000E-01  1.465000E+02  3.678514E+01  1.604220E+07  1.604398E+07  9.969515E-01  3.048515E-03  0.000000E+00  1.024000E+03  1.546434E+02  3.459370E-17  3.248480E-01    1 
 5.000000E-01  5.000000E-01  1.475000E+02  3.674479E+01  1.603216E+07  1.603397E+07  9.969034E-01  3.096613E-03  0.000000E+00  1.024000E+03  1.545779E+02  3.459956E-17  3.251078E-01    1 
 5.000000E-01  5.000000E-01  1.485000E+02  3.670445E+01  1.602212E+07  1.602396E+07  9.968555E-01  3.144519E-03  0.000000E+00  1.024000E+03  1.545124E+02  3.460542E-17  3.253678E-01    1 
 5.000000E-01  5.000000E-01  1.495000E+02  3.666412E+01  1.601208E+07  1.601394E+07  9.968077E-01  3.192287E-03  0.000000E+00  1.024000E+03  1.544468E+02  3.461129E-17  3.256280E-01    1 
 5.000000E-01  5.000000E-01  1.505000E+02  3.662379E+01  1.600204E+07  1.600393E+07  9.967600E-01  3.239967E-03  0.000000E+00  1.024000E+03  1.543812E+02  3.461717E-17  3.258884E-01    1 
 5.000000E-01  5.000000E-01  1.515000E+02  3.658346E+01  1.599200E+07  1.599392E+07  9.967124E-01  3.287605E-03  0.000000E+00  1.024000E+03  1.543156E+02  3.462306E-17  3.261490E-01    1 
 5.000000E-01  5.000000E-01  1.525000E+02  3.654314E+01  1.598196E+07  1.598391E+07  9.966648E-01  3.335243E-03  0.000000E+00  1.024000E+03  1.542499E+02  3.462894E-17  3.264098E-01    1 
 5.000000E-01  5.000000E-01  1.535000E+02  3.650282E+01  1.597193E+07  1.597389E+07  9.966171E-01  3.382920E-03  0.000000E+00  1.024000E+03  1.541842E+02  3.463484E-17  3.266708E-01    1 
 5.000000E-01  5.000000E-01  1.545000E+02  3.646251E+01  1.596189E+07  1.596388E+07  9.965693E-01  3.430674E-03  0.000000E+00  1.024000E+03  1.541185E+02  3.464074E-17  3.269320E-01    1 
 5.000000E-01  5.000000E-01  1.555000E+02  3.642220E+01  1.595185E+07  1.595387E+07  9.965215E-01  3.478539E-03  0.000000E+00  1.024000E+03  1.540528E+02  3.464665E-17  3.271935E-01    1 
 5.000000E-01  5.000000E-01  1.565000E+02  3.638189E+01  1.594181E+07  1.594386E+07  9.964735E-01  3.526547E-03  0.000000E+00  1.024000E+03  1.539870E+02  3.465256E-17  3.274551E-01    1 