TITLE = "  1.14900E+05 [y]"
VARIABLES="X [m]","Y [m]","Z [m]","Temperature [C]","Liquid Pressure [Pa]","Gas Pressure [Pa]","Liquid Saturation","Gas Saturation","Hydrate Saturation","Liquid Density [kg/m^3]","Gas Density [kg/m^3]","Permeability X [m^2]","Porosity","Material ID"
ZONE T="1.14900E+05", STRANDID=1, SOLUTIONTIME=1.14900E+05, I=1, J=1, K=1000, DATAPACKING=POINT
 5.000000E-01  5.000000E-01  5.000000E-01  4.125161E+01  1.783865E+07  1.784437E+07  9.890296E-01  1.097041E-02  0.000000E+00  1.024000E+03  1.672595E+02  3.379583E-17  2.890648E-01    1 
 5.000000E-01  5.000000E-01  1.500000E+00  4.121055E+01  1.782862E+07  1.783436E+07  9.889683E-01  1.103167E-02  0.000000E+00  1.024000E+03  1.671986E+02  3.380093E-17  2.892959E-01    1 
 5.000000E-01  5.000000E-01  2.500000E+00  4.116949E+01  1.781858E+07  1.782435E+07  9.889119E-01  1.108806E-02  0.000000E+00  1.024000E+03  1.671376E+02  3.380603E-17  2.895273E-01    1 
 5.000000E-01  5.000000E-01  3.500000E+00  4.112843E+01  1.780855E+07  1.781434E+07  9.888557E-01  1.114429E-02  0.000000E+00  1.024000E+03  1.670766E+02  3.381113E-17  2.897588E-01    1 
 5.000000E-01  5.000000E-01  4.500000E+00  4.108738E+01  1.779851E+07  1.780433E+07  9.887996E-01  1.120040E-02  0.000000E+00  1.024000E+03  1.670156E+02  3.381624E-17  2.899905E-01    1 
 5.000000E-01  5.000000E-01  5.500000E+00  4.104633E+01  1.778848E+07  1.779432E+07  9.887436E-01  1.125642E-02  0.000000E+00  1.024000E+03  1.669546E+02  3.382135E-17  2.902224E-01    1 
 5.000000E-01  5.000000E-01  6.500000E+00  4.100529E+01  1.777844E+07  1.778430E+07  9.886876E-01  1.131237E-02  0.000000E+00  1.024000E+03  1.668936E+02  3.382647E-17  2.904545E-01    1 
 5.000000E-01  5.000000E-01  7.500000E+00  4.096425E+01  1.776841E+07  1.777429E+07  9.886317E-01  1.136827E-02  0.000000E+00  1.024000E+03  1.668325E+02  3.383160E-17  2.906868E-01    1 
 5.000000E-01  5.000000E-01  8.500000E+00  4.092322E+01  1.775837E+07  1.776428E+07  9.885758E-01  1.142416E-02  0.000000E+00  1.024000E+03  1.667714E+02  3.383673E-17  2.909192E-01    1 
 5.000000E-01  5.000000E-01  9.500000E+00  4.088219E+01  1.774833E+07  1.775427E+07  9.885199E-01  1.148007E-02  0.000000E+00  1.024000E+03  1.667103E+02  3.384186E-17  2.911519E-01    1 
 5.000000E-01  5.000000E-01  1.050000E+01  4.084117E+01  1.773830E+07  1.774426E+07  9.884640E-01  1.153600E-02  0.000000E+00  1.024000E+03  1.666491E+02  3.384700E-17  2.913847E-01    1 
 5.000000E-01  5.000000E-01  1.150000E+01  4.080015E+01  1.772826E+07  1.773425E+07  9.884080E-01  1.159200E-02  0.000000E+00  1.024000E+03  1.665879E+02  3.385214E-17  2.916177E-01    1 
 5.000000E-01  5.000000E-01  1.250000E+01  4.075913E+01  1.771823E+07  1.772423E+07  9.883519E-01  1.164808E-02  0.000000E+00  1.024000E+03  1.665267E+02  3.385729E-17  2.918509E-01    1 
 5.000000E-01  5.000000E-01  1.350000E+01  4.071813E+01  1.770819E+07  1.771422E+07  9.882957E-01  1.170427E-02  0.000000E+00  1.024000E+03  1.664655E+02  3.386244E-17  2.920843E-01    1 
 5.000000E-01  5.000000E-01  1.450000E+01  4.067712E+01  1.769816E+07  1.770421E+07  9.882394E-01  1.176059E-02  0.000000E+00  1.024000E+03  1.664042E+02  3.386760E-17  2.923179E-01    1 
 5.000000E-01  5.000000E-01  1.550000E+01  4.063612E+01  1.768812E+07  1.769420E+07  9.881829E-01  1.181706E-02  0.000000E+00  1.024000E+03  1.663429E+02  3.387276E-17  2.925516E-01    1 
 5.000000E-01  5.000000E-01  1.650000E+01  4.059513E+01  1.767809E+07  1.768419E+07  9.881263E-01  1.187370E-02  0.000000E+00  1.024000E+03  1.662816E+02  3.387793E-17  2.927856E-01    1 
 5.000000E-01  5.000000E-01  1.750000E+01  4.055414E+01  1.766805E+07  1.767417E+07  9.880695E-01  1.193054E-02  0.000000E+00  1.024000E+03  1.662202E+02  3.388310E-17  2.930197E-01    1 
 5.000000E-01  5.000000E-01  1.850000E+01  4.051315E+01  1.765801E+07  1.766416E+07  9.880124E-01  1.198759E-02  0.000000E+00  1.024000E+03  1.661589E+02  3.388828E-17  2.932541E-01    1 
 5.000000E-01  5.000000E-01  1.950000E+01  4.047217E+01  1.764798E+07  1.765415E+07  9.879551E-01  1.204488E-02  0.000000E+00  1.024000E+03  1.660975E+02  3.389346E-17  2.934886E-01    1 
 5.000000E-01  5.000000E-01  2.050000E+01  4.043120E+01  1.763794E+07  1.764414E+07  9.878976E-01  1.210242E-02  0.000000E+00  1.024000E+03  1.660360E+02  3.389865E-17  2.937233E-01    1 
 5.000000E-01  5.000000E-01  2.150000E+01  4.039023E+01  1.762791E+07  1.763413E+07  9.878398E-01  1.216024E-02  0.000000E+00  1.024000E+03  1.659746E+02  3.390384E-17  2.939581E-01    1 
 5.000000E-01  5.000000E-01  2.250000E+01  4.034926E+01  1.761787E+07  1.762412E+07  9.877817E-01  1.221833E-02  0.000000E+00  1.024000E+03  1.659131E+02  3.390904E-17  2.941932E-01    1 
 5.000000E-01  5.000000E-01  2.350000E+01  4.030830E+01  1.760784E+07  1.761410E+07  9.877233E-01  1.227674E-02  0.000000E+00  1.024000E+03  1.658516E+02  3.391424E-17  2.944285E-01    1 
 5.000000E-01  5.000000E-01  2.450000E+01  4.026735E+01  1.759780E+07  1.760409E+07  9.876645E-01  1.233545E-02  0.000000E+00  1.024000E+03  1.657901E+02  3.391945E-17  2.946639E-01    1 
 5.000000E-01  5.000000E-01  2.550000E+01  4.022639E+01  1.758776E+07  1.759408E+07  9.876055E-01  1.239450E-02  0.000000E+00  1.024000E+03  1.657285E+02  3.392466E-17  2.948996E-01    1 
 5.000000E-01  5.000000E-01  2.650000E+01  4.018545E+01  1.757773E+07  1.758407E+07  9.875461E-01  1.245388E-02  0.000000E+00  1.024000E+03  1.656670E+02  3.392988E-17  2.951354E-01    1 
 5.000000E-01  5.000000E-01  2.750000E+01  4.014451E+01  1.756769E+07  1.757406E+07  9.874864E-01  1.251362E-02  0.000000E+00  1.024000E+03  1.656053E+02  3.393510E-17  2.953714E-01    1 
 5.000000E-01  5.000000E-01  2.850000E+01  4.010357E+01  1.755766E+07  1.756405E+07  9.874263E-01  1.257371E-02  0.000000E+00  1.024000E+03  1.655437E+02  3.394033E-17  2.956076E-01    1 
 5.000000E-01  5.000000E-01  2.950000E+01  4.006264E+01  1.754762E+07  1.755403E+07  9.873658E-01  1.263417E-02  0.000000E+00  1.024000E+03  1.654821E+02  3.394556E-17  2.958440E-01    1 
 5.000000E-01  5.000000E-01  3.050000E+01  4.002171E+01  1.753758E+07  1.754402E+07  9.873050E-01  1.269500E-02  0.000000E+00  1.024000E+03  1.654204E+02  3.395080E-17  2.960806E-01    1 
 5.000000E-01  5.000000E-01  3.150000E+01  3.998079E+01  1.752755E+07  1.753401E+07  9.872438E-01  1.275619E-02  0.000000E+00  1.024000E+03  1.653587E+02  3.395604E-17  2.963173E-01    1 
 5.000000E-01  5.000000E-01  3.250000E+01  3.993987E+01  1.751751E+07  1.752400E+07  9.871822E-01  1.281776E-02  0.000000E+00  1.024000E+03  1.652969E+02  3.396129E-17  2.965543E-01    1 
 5.000000E-01  5.000000E-01  3.350000E+01  3.989896E+01  1.750748E+07  1.751399E+07  9.871203E-01  1.287969E-02  0.000000E+00  1.024000E+03  1.652352E+02  3.396654E-17  2.967915E-01    1 
 5.000000E-01  5.000000E-01  3.450000E+01  3.985805E+01  1.749744E+07  1.750398E+07  9.870580E-01  1.294199E-02  0.000000E+00  1.024000E+03  1.651734E+02  3.397180E-17  2.970288E-01    1 
 5.000000E-01  5.000000E-01  3.550000E+01  3.981715E+01  1.748740E+07  1.749397E+07  9.869954E-01  1.300465E-02  0.000000E+00  1.024000E+03  1.651116E+02  3.397706E-17  2.972663E-01    1 
 5.000000E-01  5.000000E-01  3.650000E+01  3.977625E+01  1.747737E+07  1.748396E+07  9.869324E-01  1.306765E-02  0.000000E+00  1.024000E+03  1.650497E+02  3.398233E-17  2.975040E-01    1 
 5.000000E-01  5.000000E-01  3.750000E+01  3.973536E+01  1.746733E+07  1.747395E+07  9.868690E-01  1.313098E-02  0.000000E+00  1.024000E+03  1.649879E+02  3.398760E-17  2.977419E-01    1 
 5.000000E-01  5.000000E-01  3.850000E+01  3.969447E+01  1.745730E+07  1.746394E+07  9.868054E-01  1.319464E-02  0.000000E+00  1.024000E+03  1.649260E+02  3.399288E-17  2.979800E-01    1 
 5.000000E-01  5.000000E-01  3.950000E+01  3.965358E+01  1.744726E+07  1.745392E+07  9.867414E-01  1.325861E-02  0.000000E+00  1.024000E+03  1.648640E+02  3.399816E-17  2.982183E-01    1 
 5.000000E-01  5.000000E-01  4.050000E+01  3.961271E+01  1.743722E+07  1.744391E+07  9.866771E-01  1.332288E-02  0.000000E+00  1.024000E+03  1.648021E+02  3.400345E-17  2.984568E-01    1 
 5.000000E-01  5.000000E-01  4.150000E+01  3.957183E+01  1.742719E+07  1.743390E+07  9.866126E-01  1.338743E-02  0.000000E+00  1.024000E+03  1.647401E+02  3.400874E-17  2.986955E-01    1 
 5.000000E-01  5.000000E-01  4.250000E+01  3.953096E+01  1.741715E+07  1.742389E+07  9.865478E-01  1.345224E-02  0.000000E+00  1.024000E+03  1.646781E+02  3.401404E-17  2.989343E-01    1 
 5.000000E-01  5.000000E-01  4.350000E+01  3.949010E+01  1.740711E+07  1.741388E+07  9.864827E-01  1.351727E-02  0.000000E+00  1.024000E+03  1.646161E+02  3.401934E-17  2.991734E-01    1 
 5.000000E-01  5.000000E-01  4.450000E+01  3.944924E+01  1.739708E+07  1.740387E+07  9.864175E-01  1.358251E-02  0.000000E+00  1.024000E+03  1.645540E+02  3.402465E-17  2.994126E-01    1 
 5.000000E-01  5.000000E-01  4.550000E+01  3.940838E+01  1.738704E+07  1.739386E+07  9.863521E-01  1.364793E-02  0.000000E+00  1.024000E+03  1.644920E+02  3.402996E-17  2.996521E-01    1 
 5.000000E-01  5.000000E-01  4.650000E+01  3.936753E+01  1.737700E+07  1.738385E+07  9.862865E-01  1.371351E-02  0.000000E+00  1.024000E+03  1.644299E+02  3.403528E-17  2.998917E-01    1 
 5.000000E-01  5.000000E-01  4.750000E+01  3.932669E+01  1.736697E+07  1.737384E+07  9.862208E-01  1.377922E-02  0.000000E+00  1.024000E+03  1.643677E+02  3.404060E-17  3.001315E-01    1 
 5.000000E-01  5.000000E-01  4.850000E+01  3.928585E+01  1.735693E+07  1.736383E+07  9.861550E-01  1.384502E-02  0.000000E+00  1.024000E+03  1.643056E+02  3.404593E-17  3.003715E-01    1 
 5.000000E-01  5.000000E-01  4.950000E+01  3.924501E+01  1.734690E+07  1.735382E+07  9.860891E-01  1.391090E-02  0.000000E+00  1.024000E+03  1.642434E+02  3.405126E-17  3.006117E-01    1 
 5.000000E-01  5.000000E-01  5.050000E+01  3.920418E+01  1.733686E+07  1.734380E+07  9.860232E-01  1.397683E-02  0.000000E+00  1.024000E+03  1.641812E+02  3.405660E-17  3.008521E-01    1 
 5.000000E-01  5.000000E-01  5.150000E+01  3.916336E+01  1.732682E+07  1.733379E+07  9.859572E-01  1.404277E-02  0.000000E+00  1.024000E+03  1.641189E+02  3.406195E-17  3.010927E-01    1 
 5.000000E-01  5.000000E-01  5.250000E+01  3.912254E+01  1.731679E+07  1.732378E+07  9.858913E-01  1.410870E-02  0.000000E+00  1.024000E+03  1.640566E+02  3.406729E-17  3.013335E-01    1 
 5.000000E-01  5.000000E-01  5.350000E+01  3.908172E+01  1.730675E+07  1.731377E+07  9.858254E-01  1.417459E-02  0.000000E+00  1.024000E+03  1.639943E+02  3.407265E-17  3.015744E-01    1 
 5.000000E-01  5.000000E-01  5.450000E+01  3.904091E+01  1.729671E+07  1.730376E+07  9.857596E-01  1.424042E-02  0.000000E+00  1.024000E+03  1.639320E+02  3.407801E-17  3.018156E-01    1 
 5.000000E-01  5.000000E-01  5.550000E+01  3.900010E+01  1.728668E+07  1.729375E+07  9.856938E-01  1.430616E-02  0.000000E+00  1.024000E+03  1.638697E+02  3.408337E-17  3.020570E-01    1 
 5.000000E-01  5.000000E-01  5.650000E+01  3.895930E+01  1.727664E+07  1.728373E+07  9.856282E-01  1.437179E-02  0.000000E+00  1.024000E+03  1.638073E+02  3.408874E-17  3.022985E-01    1 
 5.000000E-01  5.000000E-01  5.750000E+01  3.891851E+01  1.726660E+07  1.727372E+07  9.855627E-01  1.443728E-02  0.000000E+00  1.024000E+03  1.637449E+02  3.409411E-17  3.025403E-01    1 
 5.000000E-01  5.000000E-01  5.850000E+01  3.887771E+01  1.725657E+07  1.726371E+07  9.854974E-01  1.450262E-02  0.000000E+00  1.024000E+03  1.636824E+02  3.409949E-17  3.027822E-01    1 
 5.000000E-01  5.000000E-01  5.950000E+01  3.883693E+01  1.724653E+07  1.725370E+07  9.854322E-01  1.456778E-02  0.000000E+00  1.024000E+03  1.636200E+02  3.410488E-17  3.030243E-01    1 
 5.000000E-01  5.000000E-01  6.050000E+01  3.879615E+01  1.723649E+07  1.724369E+07  9.853672E-01  1.463275E-02  0.000000E+00  1.024000E+03  1.635575E+02  3.411027E-17  3.032666E-01    1 
 5.000000E-01  5.000000E-01  6.150000E+01  3.875537E+01  1.722645E+07  1.723367E+07  9.853025E-01  1.469752E-02  0.000000E+00  1.024000E+03  1.634949E+02  3.411566E-17  3.035092E-01    1 
 5.000000E-01  5.000000E-01  6.250000E+01  3.871460E+01  1.721642E+07  1.722366E+07  9.852379E-01  1.476207E-02  0.000000E+00  1.024000E+03  1.634324E+02  3.412106E-17  3.037519E-01    1 
 5.000000E-01  5.000000E-01  6.350000E+01  3.867383E+01  1.720638E+07  1.721365E+07  9.851736E-01  1.482640E-02  0.000000E+00  1.024000E+03  1.633698E+02  3.412647E-17  3.039948E-01    1 
 5.000000E-01  5.000000E-01  6.450000E+01  3.863307E+01  1.719634E+07  1.720363E+07  9.851095E-01  1.489048E-02  0.000000E+00  1.024000E+03  1.633072E+02  3.413188E-17  3.042379E-01    1 
 5.000000E-01  5.000000E-01  6.550000E+01  3.859231E+01  1.718631E+07  1.719362E+07  9.850457E-01  1.495432E-02  0.000000E+00  1.024000E+03  1.632445E+02  3.413729E-17  3.044812E-01    1 
 5.000000E-01  5.000000E-01  6.650000E+01  3.855156E+01  1.717627E+07  1.718361E+07  9.849821E-01  1.501791E-02  0.000000E+00  1.024000E+03  1.631819E+02  3.414271E-17  3.047247E-01    1 
 5.000000E-01  5.000000E-01  6.750000E+01  3.851081E+01  1.716623E+07  1.717359E+07  9.849187E-01  1.508125E-02  0.000000E+00  1.024000E+03  1.631192E+02  3.414814E-17  3.049683E-01    1 
 5.000000E-01  5.000000E-01  6.850000E+01  3.847007E+01  1.715620E+07  1.716358E+07  9.848557E-01  1.514434E-02  0.000000E+00  1.024000E+03  1.630565E+02  3.415357E-17  3.052122E-01    1 
 5.000000E-01  5.000000E-01  6.950000E+01  3.842933E+01  1.714616E+07  1.715356E+07  9.847928E-01  1.520717E-02  0.000000E+00  1.024000E+03  1.629937E+02  3.415901E-17  3.054563E-01    1 
 5.000000E-01  5.000000E-01  7.050000E+01  3.838860E+01  1.713612E+07  1.714355E+07  9.847302E-01  1.526975E-02  0.000000E+00  1.024000E+03  1.629309E+02  3.416445E-17  3.057006E-01    1 
 5.000000E-01  5.000000E-01  7.150000E+01  3.834787E+01  1.712608E+07  1.713354E+07  9.846679E-01  1.533209E-02  0.000000E+00  1.024000E+03  1.628681E+02  3.416989E-17  3.059450E-01    1 
 5.000000E-01  5.000000E-01  7.250000E+01  3.830715E+01  1.711605E+07  1.712352E+07  9.846058E-01  1.539418E-02  0.000000E+00  1.024000E+03  1.628053E+02  3.417535E-17  3.061897E-01    1 
 5.000000E-01  5.000000E-01  7.350000E+01  3.826643E+01  1.710601E+07  1.711351E+07  9.845440E-01  1.545604E-02  0.000000E+00  1.024000E+03  1.627424E+02  3.418080E-17  3.064345E-01    1 
 5.000000E-01  5.000000E-01  7.450000E+01  3.822572E+01  1.709597E+07  1.710349E+07  9.844823E-01  1.551767E-02  0.000000E+00  1.024000E+03  1.626795E+02  3.418627E-17  3.066796E-01    1 
 5.000000E-01  5.000000E-01  7.550000E+01  3.818501E+01  1.708593E+07  1.709348E+07  9.844209E-01  1.557908E-02  0.000000E+00  1.024000E+03  1.626166E+02  3.419173E-17  3.069248E-01    1 
 5.000000E-01  5.000000E-01  7.650000E+01  3.814431E+01  1.707590E+07  1.708346E+07  9.843597E-01  1.564028E-02  0.000000E+00  1.024000E+03  1.625536E+02  3.419721E-17  3.071703E-01    1 
 5.000000E-01  5.000000E-01  7.750000E+01  3.810361E+01  1.706586E+07  1.707344E+07  9.842987E-01  1.570128E-02  0.000000E+00  1.024000E+03  1.624906E+02  3.420268E-17  3.074159E-01    1 
 5.000000E-01  5.000000E-01  7.850000E+01  3.806292E+01  1.705582E+07  1.706343E+07  9.842379E-01  1.576208E-02  0.000000E+00  1.024000E+03  1.624276E+02  3.420817E-17  3.076617E-01    1 
 5.000000E-01  5.000000E-01  7.950000E+01  3.802223E+01  1.704578E+07  1.705341E+07  9.841773E-01  1.582270E-02  0.000000E+00  1.024000E+03  1.623646E+02  3.421366E-17  3.079078E-01    1 
 5.000000E-01  5.000000E-01  8.050000E+01  3.798154E+01  1.703575E+07  1.704340E+07  9.841169E-01  1.588314E-02  0.000000E+00  1.024000E+03  1.623015E+02  3.421915E-17  3.081540E-01    1 
 5.000000E-01  5.000000E-01  8.150000E+01  3.794087E+01  1.702571E+07  1.703338E+07  9.840566E-01  1.594343E-02  0.000000E+00  1.024000E+03  1.622384E+02  3.422465E-17  3.084004E-01    1 
 5.000000E-01  5.000000E-01  8.250000E+01  3.790019E+01  1.701567E+07  1.702336E+07  9.839964E-01  1.600357E-02  0.000000E+00  1.024000E+03  1.621753E+02  3.423015E-17  3.086470E-01    1 
 5.000000E-01  5.000000E-01  8.350000E+01  3.785953E+01  1.700563E+07  1.701335E+07  9.839364E-01  1.606356E-02  0.000000E+00  1.024000E+03  1.621122E+02  3.423566E-17  3.088939E-01    1 
 5.000000E-01  5.000000E-01  8.450000E+01  3.781886E+01  1.699560E+07  1.700333E+07  9.838766E-01  1.612343E-02  0.000000E+00  1.024000E+03  1.620490E+02  3.424118E-17  3.091409E-01    1 
 5.000000E-01  5.000000E-01  8.550000E+01  3.777821E+01  1.698556E+07  1.699331E+07  9.838168E-01  1.618318E-02  0.000000E+00  1.024000E+03  1.619858E+02  3.424670E-17  3.093881E-01    1 
 5.000000E-01  5.000000E-01  8.650000E+01  3.773755E+01  1.697552E+07  1.698330E+07  9.837572E-01  1.624282E-02  0.000000E+00  1.024000E+03  1.619225E+02  3.425222E-17  3.096355E-01    1 
 5.000000E-01  5.000000E-01  8.750000E+01  3.769690E+01  1.696548E+07  1.697328E+07  9.836976E-01  1.630236E-02  0.000000E+00  1.024000E+03  1.618593E+02  3.425775E-17  3.098831E-01    1 
 5.000000E-01  5.000000E-01  8.850000E+01  3.765626E+01  1.695545E+07  1.696326E+07  9.836382E-01  1.636182E-02  0.000000E+00  1.024000E+03  1.617960E+02  3.426329E-17  3.101309E-01    1 
 5.000000E-01  5.000000E-01  8.950000E+01  3.761562E+01  1.694541E+07  1.695325E+07  9.835788E-01  1.642119E-02  0.000000E+00  1.024000E+03  1.617326E+02  3.426883E-17  3.103789E-01    1 
 5.000000E-01  5.000000E-01  9.050000E+01  3.757499E+01  1.693537E+07  1.694323E+07  9.835195E-01  1.648050E-02  0.000000E+00  1.024000E+03  1.616693E+02  3.427438E-17  3.106271E-01    1 
 5.000000E-01  5.000000E-01  9.150000E+01  3.753436E+01  1.692533E+07  1.693321E+07  9.834602E-01  1.653975E-02  0.000000E+00  1.024000E+03  1.616059E+02  3.427993E-17  3.108755E-01    1 
 5.000000E-01  5.000000E-01  9.250000E+01  3.749374E+01  1.691530E+07  1.692319E+07  9.834010E-01  1.659895E-02  0.000000E+00  1.024000E+03  1.615425E+02  3.428549E-17  3.111241E-01    1 
 5.000000E-01  5.000000E-01  9.350000E+01  3.745312E+01  1.690526E+07  1.691318E+07  9.833419E-01  1.665811E-02  0.000000E+00  1.024000E+03  1.614791E+02  3.429105E-17  3.113729E-01    1 
 5.000000E-01  5.000000E-01  9.450000E+01  3.741251E+01  1.689522E+07  1.690316E+07  9.832828E-01  1.671724E-02  0.000000E+00  1.024000E+03  1.614156E+02  3.429662E-17  3.116219E-01    1 
 5.000000E-01  5.000000E-01  9.550000E+01  3.737190E+01  1.688518E+07  1.689314E+07  9.832237E-01  1.677633E-02  0.000000E+00  1.024000E+03  1.613521E+02  3.430219E-17  3.118711E-01    1 
 5.000000E-01  5.000000E-01  9.650000E+01  3.733130E+01  1.687514E+07  1.688312E+07  9.831646E-01  1.683541E-02  0.000000E+00  1.024000E+03  1.612886E+02  3.430777E-17  3.121205E-01    1 
 5.000000E-01  5.000000E-01  9.750000E+01  3.729070E+01  1.686511E+07  1.687310E+07  9.831055E-01  1.689448E-02  0.000000E+00  1.024000E+03  1.612250E+02  3.431336E-17  3.123701E-01    1 
 5.000000E-01  5.000000E-01  9.850000E+01  3.725011E+01  1.685507E+07  1.686309E+07  9.830465E-01  1.695354E-02  0.000000E+00  1.024000E+03  1.611614E+02  3.431895E-17  3.126199E-01    1 
 5.000000E-01  5.000000E-01  9.950000E+01  3.720952E+01  1.684503E+07  1.685307E+07  9.829874E-01  1.701260E-02  0.000000E+00  1.024000E+03  1.610978E+02  3.432454E-17  3.128699E-01    1 
 5.000000E-01  5.000000E-01  1.005000E+02  3.716894E+01  1.683499E+07  1.684305E+07  9.829283E-01  1.707167E-02  0.000000E+00  1.024000E+03  1.610342E+02  3.433014E-17  3.131201E-01    1 
 5.000000E-01  5.000000E-01  1.015000E+02  3.712836E+01  1.682495E+07  1.683303E+07  9.828692E-01  1.713075E-02  0.000000E+00  1.024000E+03  1.609705E+02  3.433575E-17  3.133705E-01    1 
 5.000000E-01  5.000000E-01  1.025000E+02  3.708779E+01  1.681492E+07  1.682301E+07  9.828101E-01  1.718985E-02  0.000000E+00  1.024000E+03  1.609068E+02  3.434136E-17  3.136211E-01    1 
 5.000000E-01  5.000000E-01  1.035000E+02  3.704722E+01  1.680488E+07  1.681299E+07  9.827510E-01  1.724897E-02  0.000000E+00  1.024000E+03  1.608431E+02  3.434698E-17  3.138719E-01    1 
 5.000000E-01  5.000000E-01  1.045000E+02  3.700666E+01  1.679484E+07  1.680298E+07  9.826919E-01  1.730812E-02  0.000000E+00  1.024000E+03  1.607794E+02  3.435260E-17  3.141229E-01    1 
 5.000000E-01  5.000000E-01  1.055000E+02  3.696611E+01  1.678480E+07  1.679296E+07  9.826327E-01  1.736730E-02  0.000000E+00  1.024000E+03  1.607156E+02  3.435823E-17  3.143741E-01    1 
 5.000000E-01  5.000000E-01  1.065000E+02  3.692555E+01  1.677476E+07  1.678294E+07  9.825735E-01  1.742651E-02  0.000000E+00  1.024000E+03  1.606518E+02  3.436386E-17  3.146255E-01    1 
 5.000000E-01  5.000000E-01  1.075000E+02  3.688501E+01  1.676472E+07  1.677292E+07  9.825142E-01  1.748576E-02  0.000000E+00  1.024000E+03  1.605880E+02  3.436950E-17  3.148771E-01    1 
 5.000000E-01  5.000000E-01  1.085000E+02  3.684447E+01  1.675469E+07  1.676290E+07  9.824549E-01  1.754506E-02  0.000000E+00  1.024000E+03  1.605241E+02  3.437514E-17  3.151289E-01    1 
 5.000000E-01  5.000000E-01  1.095000E+02  3.680393E+01  1.674465E+07  1.675288E+07  9.823956E-01  1.760440E-02  0.000000E+00  1.024000E+03  1.604602E+02  3.438079E-17  3.153809E-01    1 
 5.000000E-01  5.000000E-01  1.105000E+02  3.676340E+01  1.673461E+07  1.674286E+07  9.823362E-01  1.766379E-02  0.000000E+00  1.024000E+03  1.603963E+02  3.438645E-17  3.156331E-01    1 
 5.000000E-01  5.000000E-01  1.115000E+02  3.672287E+01  1.672457E+07  1.673284E+07  9.822768E-01  1.772323E-02  0.000000E+00  1.024000E+03  1.603323E+02  3.439211E-17  3.158855E-01    1 
 5.000000E-01  5.000000E-01  1.125000E+02  3.668235E+01  1.671453E+07  1.672282E+07  9.822173E-01  1.778272E-02  0.000000E+00  1.024000E+03  1.602684E+02  3.439777E-17  3.161381E-01    1 
 5.000000E-01  5.000000E-01  1.135000E+02  3.664184E+01  1.670449E+07  1.671281E+07  9.821577E-01  1.784227E-02  0.000000E+00  1.024000E+03  1.602044E+02  3.440344E-17  3.163909E-01    1 
 5.000000E-01  5.000000E-01  1.145000E+02  3.660133E+01  1.669445E+07  1.670279E+07  9.820981E-01  1.790188E-02  0.000000E+00  1.024000E+03  1.601403E+02  3.440912E-17  3.166439E-01    1 
 5.000000E-01  5.000000E-01  1.155000E+02  3.656082E+01  1.668442E+07  1.669277E+07  9.820384E-01  1.796155E-02  0.000000E+00  1.024000E+03  1.600763E+02  3.441480E-17  3.168971E-01    1 
 5.000000E-01  5.000000E-01  1.165000E+02  3.652032E+01  1.667438E+07  1.668275E+07  9.819787E-01  1.802128E-02  0.000000E+00  1.024000E+03  1.600122E+02  3.442049E-17  3.171506E-01    1 
 5.000000E-01  5.000000E-01  1.175000E+02  3.647983E+01  1.666434E+07  1.667273E+07  9.819189E-01  1.808108E-02  0.000000E+00  1.024000E+03  1.599481E+02  3.442618E-17  3.174042E-01    1 
 5.000000E-01  5.000000E-01  1.185000E+02  3.643934E+01  1.665430E+07  1.666271E+07  9.818590E-01  1.814095E-02  0.000000E+00  1.024000E+03  1.598839E+02  3.443188E-17  3.176580E-01    1 
 5.000000E-01  5.000000E-01  1.195000E+02  3.639885E+01  1.664426E+07  1.665269E+07  9.817991E-01  1.820089E-02  0.000000E+00  1.024000E+03  1.598197E+02  3.443758E-17  3.179120E-01    1 
 5.000000E-01  5.000000E-01  1.205000E+02  3.635837E+01  1.663422E+07  1.664267E+07  9.817391E-01  1.826090E-02  0.000000E+00  1.024000E+03  1.597555E+02  3.444329E-17  3.181663E-01    1 
 5.000000E-01  5.000000E-01  1.215000E+02  3.631790E+01  1.662418E+07  1.663265E+07  9.816790E-01  1.832098E-02  0.000000E+00  1.024000E+03  1.596913E+02  3.444901E-17  3.184207E-01    1 
 5.000000E-01  5.000000E-01  1.225000E+02  3.627743E+01  1.661415E+07  1.662263E+07  9.816189E-01  1.838114E-02  0.000000E+00  1.024000E+03  1.596270E+02  3.445473E-17  3.186753E-01    1 
 5.000000E-01  5.000000E-01  1.235000E+02  3.623697E+01  1.660411E+07  1.661261E+07  9.815586E-01  1.844138E-02  0.000000E+00  1.024000E+03  1.595627E+02  3.446046E-17  3.189302E-01    1 
 5.000000E-01  5.000000E-01  1.245000E+02  3.619651E+01  1.659407E+07  1.660259E+07  9.814983E-01  1.850170E-02  0.000000E+00  1.024000E+03  1.594984E+02  3.446619E-17  3.191852E-01    1 
 5.000000E-01  5.000000E-01  1.255000E+02  3.615605E+01  1.658403E+07  1.659257E+07  9.814379E-01  1.856210E-02  0.000000E+00  1.024000E+03  1.594341E+02  3.447192E-17  3.194405E-01    1 
 5.000000E-01  5.000000E-01  1.265000E+02  3.611560E+01  1.657399E+07  1.658255E+07  9.813774E-01  1.862260E-02  0.000000E+00  1.024000E+03  1.593697E+02  3.447767E-17  3.196959E-01    1 
 5.000000E-01  5.000000E-01  1.275000E+02  3.607516E+01  1.656395E+07  1.657253E+07  9.813168E-01  1.868318E-02  0.000000E+00  1.024000E+03  1.593053E+02  3.448342E-17  3.199516E-01    1 
 5.000000E-01  5.000000E-01  1.285000E+02  3.603472E+01  1.655391E+07  1.656251E+07  9.812561E-01  1.874386E-02  0.000000E+00  1.024000E+03  1.592409E+02  3.448917E-17  3.202074E-01    1 
 5.000000E-01  5.000000E-01  1.295000E+02  3.599429E+01  1.654387E+07  1.655249E+07  9.811954E-01  1.880464E-02  0.000000E+00  1.024000E+03  1.591764E+02  3.449493E-17  3.204635E-01    1 
 5.000000E-01  5.000000E-01  1.305000E+02  3.595386E+01  1.653383E+07  1.654247E+07  9.811345E-01  1.886552E-02  0.000000E+00  1.024000E+03  1.591119E+02  3.450069E-17  3.207197E-01    1 
 5.000000E-01  5.000000E-01  1.315000E+02  3.591344E+01  1.652379E+07  1.653245E+07  9.810735E-01  1.892650E-02  0.000000E+00  1.024000E+03  1.590474E+02  3.450646E-17  3.209762E-01    1 
 5.000000E-01  5.000000E-01  1.325000E+02  3.587302E+01  1.651376E+07  1.652243E+07  9.810124E-01  1.898760E-02  0.000000E+00  1.024000E+03  1.589828E+02  3.451224E-17  3.212329E-01    1 
 5.000000E-01  5.000000E-01  1.335000E+02  3.583261E+01  1.650372E+07  1.651241E+07  9.809512E-01  1.904882E-02  0.000000E+00  1.024000E+03  1.589183E+02  3.451802E-17  3.214898E-01    1 
 5.000000E-01  5.000000E-01  1.345000E+02  3.579221E+01  1.649368E+07  1.650239E+07  9.808898E-01  1.911016E-02  0.000000E+00  1.024000E+03  1.588537E+02  3.452381E-17  3.217469E-01    1 
 5.000000E-01  5.000000E-01  1.355000E+02  3.575181E+01  1.648364E+07  1.649236E+07  9.808284E-01  1.917164E-02  0.000000E+00  1.024000E+03  1.587890E+02  3.452960E-17  3.220042E-01    1 
 5.000000E-01  5.000000E-01  1.365000E+02  3.571141E+01  1.647360E+07  1.648234E+07  9.807668E-01  1.923325E-02  0.000000E+00  1.024000E+03  1.587244E+02  3.453540E-17  3.222617E-01    1 
 5.000000E-01  5.000000E-01  1.375000E+02  3.567102E+01  1.646356E+07  1.647232E+07  9.807050E-01  1.929500E-02  0.000000E+00  1.024000E+03  1.586597E+02  3.454121E-17  3.225194E-01    1 
 5.000000E-01  5.000000E-01  1.385000E+02  3.563063E+01  1.645352E+07  1.646230E+07  9.806431E-01  1.935692E-02  0.000000E+00  1.024000E+03  1.585950E+02  3.454701E-17  3.227773E-01    1 
 5.000000E-01  5.000000E-01  1.395000E+02  3.559025E+01  1.644348E+07  1.645228E+07  9.805810E-01  1.941899E-02  0.000000E+00  1.024000E+03  1.585302E+02  3.455283E-17  3.230354E-01    1 
 5.000000E-01  5.000000E-01  1.405000E+02  3.554988E+01  1.643344E+07  1.644226E+07  9.805188E-01  1.948124E-02  0.000000E+00  1.024000E+03  1.584654E+02  3.455865E-17  3.232937E-01    1 
 5.000000E-01  5.000000E-01  1.415000E+02  3.550951E+01  1.642340E+07  1.643224E+07  9.804563E-01  1.954367E-02  0.000000E+00  1.024000E+03  1.584006E+02  3.456448E-17  3.235523E-01    1 
 5.000000E-01  5.000000E-01  1.425000E+02  3.546914E+01  1.641336E+07  1.642222E+07  9.803937E-01  1.960630E-02  0.000000E+00  1.024000E+03  1.583358E+02  3.457031E-17  3.238110E-01    1 
 5.000000E-01  5.000000E-01  1.435000E+02  3.542879E+01  1.640332E+07  1.641220E+07  9.803309E-01  1.966914E-02  0.000000E+00  1.024000E+03  1.582709E+02  3.457615E-17  3.240699E-01    1 
 5.000000E-01  5.000000E-01  1.445000E+02  3.538843E+01  1.639328E+07  1.640218E+07  9.802678E-01  1.973220E-02  0.000000E+00  1.024000E+03  1.582061E+02  3.458199E-17  3.243291E-01    1 
 5.000000E-01  5.000000E-01  1.455000E+02  3.534808E+01  1.638324E+07  1.639216E+07  9.802045E-01  1.979551E-02  0.000000E+00  1.024000E+03  1.581411E+02  3.458784E-17  3.245885E-01    1 
 5.000000E-01  5.000000E-01  1.465000E+02  3.530774E+01  1.637320E+07  1.638213E+07  9.801409E-01  1.985907E-02  0.000000E+00  1.024000E+03  1.580762E+02  3.459370E-17  3.248480E-01    1 
 5.000000E-01  5.000000E-01  1.475000E+02  3.526740E+01  1.636317E+07  1.637211E+07  9.800771E-01  1.992291E-02  0.000000E+00  1.024000E+03  1.580112E+02  3.459956E-17  3.251078E-01    1 
 5.000000E-01  5.000000E-01  1.485000E+02  3.522707E+01  1.635313E+07  1.636209E+07  9.800130E-01  1.998704E-02  0.000000E+00  1.024000E+03  1.579462E+02  3.460542E-17  3.253678E-01    1 
 5.000000E-01  5.000000E-01  1.495000E+02  3.518674E+01  1.634309E+07  1.635207E+07  9.799485E-01  2.005148E-02  0.000000E+00  1.024000E+03  1.578812E+02  3.461129E-17  3.256280E-01    1 
 5.000000E-01  5.000000E-01  1.505000E+02  3.514642E+01  1.633305E+07  1.634205E+07  9.798837E-01  2.011626E-02  0.000000E+00  1.024000E+03  1.578161E+02  3.461717E-17  3.258884E-01    1 
 5.000000E-01  5.000000E-01  1.515000E+02  3.510610E+01  1.632301E+07  1.633203E+07  9.798186E-01  2.018139E-02  0.000000E+00  1.024000E+03  1.577510E+02  3.462306E-17  3.261490E-01    1 
 5.000000E-01  5.000000E-01  1.525000E+02  3.506579E+01  1.631297E+07  1.632201E+07  9.797531E-01  2.024690E-02  0.000000E+00  1.024000E+03  1.576859E+02  3.462894E-17  3.264098E-01    1 
 5.000000E-01  5.000000E-01  1.535000E+02  3.502549E+01  1.630293E+07  1.631199E+07  9.796872E-01  2.031281E-02  0.000000E+00  1.024000E+03  1.576207E+02  3.463484E-17  3.266708E-01    1 
 5.000000E-01  5.000000E-01  1.545000E+02  3.498519E+01  1.629289E+07  1.630197E+07  9.796208E-01  2.037915E-02  0.000000E+00  1.024000E+03  1.575556E+02  3.464074E-17  3.269320E-01    1 
 5.000000E-01  5.000000E-01  1.555000E+02  3.494489E+01  1.628285E+07  1.629194E+07  9.795540E-01  2.044595E-02  0.000000E+00  1.024000E+03  1.574904E+02  3.464665E-17  3.271935E-01    1 
 5.000000E-01  5.000000E-01  1.565000E+02  3.490460E+01  1.627281E+07  1.628192E+07  9.794868E-01  2.051323E-02  0.000000E+00  1.024000E+03  1.574251E+02  3.465256E-17  3.274551E-01    1 