TITLE = "  1.00000E+05 [y]"
VARIABLES="X [m]","Y [m]","Z [m]","Temperature [C]","Liquid Pressure [Pa]","Gas Pressure [Pa]","Liquid Saturation","Gas Saturation","Hydrate Saturation","Liquid Density [kg/m^3]","Gas Density [kg/m^3]","Permeability X [m^2]","Porosity","Material ID"
ZONE T="1.00000E+05", STRANDID=1, SOLUTIONTIME=1.00000E+05, I=1, J=1, K=1000, DATAPACKING=POINT
 5.000000E-01  5.000000E-01  5.000000E-01  4.144967E+01  1.661106E+07  1.661645E+07  9.897644E-01  1.023558E-02  0.000000E+00  1.024000E+03  1.573301E+02  3.379583E-17  2.890648E-01    1 
 5.000000E-01  5.000000E-01  1.500000E+00  4.140861E+01  1.660102E+07  1.660645E+07  9.896808E-01  1.031920E-02  0.000000E+00  1.024000E+03  1.572667E+02  3.380093E-17  2.892959E-01    1 
 5.000000E-01  5.000000E-01  2.500000E+00  4.136755E+01  1.659099E+07  1.659645E+07  9.896054E-01  1.039464E-02  0.000000E+00  1.024000E+03  1.572033E+02  3.380603E-17  2.895273E-01    1 
 5.000000E-01  5.000000E-01  3.500000E+00  4.132649E+01  1.658095E+07  1.658645E+07  9.895301E-01  1.046989E-02  0.000000E+00  1.024000E+03  1.571398E+02  3.381113E-17  2.897588E-01    1 
 5.000000E-01  5.000000E-01  4.500000E+00  4.128543E+01  1.657092E+07  1.657645E+07  9.894551E-01  1.054493E-02  0.000000E+00  1.024000E+03  1.570762E+02  3.381624E-17  2.899905E-01    1 
 5.000000E-01  5.000000E-01  5.500000E+00  4.124438E+01  1.656088E+07  1.656645E+07  9.893803E-01  1.061969E-02  0.000000E+00  1.024000E+03  1.570127E+02  3.382135E-17  2.902224E-01    1 
 5.000000E-01  5.000000E-01  6.500000E+00  4.120332E+01  1.655085E+07  1.655644E+07  9.893059E-01  1.069412E-02  0.000000E+00  1.024000E+03  1.569491E+02  3.382647E-17  2.904545E-01    1 
 5.000000E-01  5.000000E-01  7.500000E+00  4.116227E+01  1.654081E+07  1.654644E+07  9.892318E-01  1.076816E-02  0.000000E+00  1.024000E+03  1.568855E+02  3.383160E-17  2.906868E-01    1 
 5.000000E-01  5.000000E-01  8.500000E+00  4.112122E+01  1.653078E+07  1.653644E+07  9.891582E-01  1.084178E-02  0.000000E+00  1.024000E+03  1.568219E+02  3.383673E-17  2.909192E-01    1 
 5.000000E-01  5.000000E-01  9.500000E+00  4.108018E+01  1.652074E+07  1.652643E+07  9.890851E-01  1.091493E-02  0.000000E+00  1.024000E+03  1.567582E+02  3.384186E-17  2.911519E-01    1 
 5.000000E-01  5.000000E-01  1.050000E+01  4.103914E+01  1.651070E+07  1.651643E+07  9.890124E-01  1.098757E-02  0.000000E+00  1.024000E+03  1.566945E+02  3.384700E-17  2.913847E-01    1 
 5.000000E-01  5.000000E-01  1.150000E+01  4.099809E+01  1.650067E+07  1.650642E+07  9.889403E-01  1.105966E-02  0.000000E+00  1.024000E+03  1.566308E+02  3.385214E-17  2.916177E-01    1 
 5.000000E-01  5.000000E-01  1.250000E+01  4.095706E+01  1.649063E+07  1.649642E+07  9.888688E-01  1.113118E-02  0.000000E+00  1.024000E+03  1.565671E+02  3.385729E-17  2.918509E-01    1 
 5.000000E-01  5.000000E-01  1.350000E+01  4.091602E+01  1.648060E+07  1.648641E+07  9.887979E-01  1.120210E-02  0.000000E+00  1.024000E+03  1.565033E+02  3.386244E-17  2.920843E-01    1 
 5.000000E-01  5.000000E-01  1.450000E+01  4.087499E+01  1.647056E+07  1.647641E+07  9.887276E-01  1.127241E-02  0.000000E+00  1.024000E+03  1.564395E+02  3.386760E-17  2.923179E-01    1 
 5.000000E-01  5.000000E-01  1.550000E+01  4.083395E+01  1.646053E+07  1.646640E+07  9.886579E-01  1.134208E-02  0.000000E+00  1.024000E+03  1.563756E+02  3.387276E-17  2.925516E-01    1 
 5.000000E-01  5.000000E-01  1.650000E+01  4.079293E+01  1.645049E+07  1.645640E+07  9.885889E-01  1.141113E-02  0.000000E+00  1.024000E+03  1.563118E+02  3.387793E-17  2.927856E-01    1 
 5.000000E-01  5.000000E-01  1.750000E+01  4.075190E+01  1.644046E+07  1.644639E+07  9.885205E-01  1.147953E-02  0.000000E+00  1.024000E+03  1.562479E+02  3.388310E-17  2.930197E-01    1 
 5.000000E-01  5.000000E-01  1.850000E+01  4.071088E+01  1.643042E+07  1.643638E+07  9.884527E-01  1.154730E-02  0.000000E+00  1.024000E+03  1.561840E+02  3.388828E-17  2.932541E-01    1 
 5.000000E-01  5.000000E-01  1.950000E+01  4.066985E+01  1.642038E+07  1.642638E+07  9.883855E-01  1.161445E-02  0.000000E+00  1.024000E+03  1.561200E+02  3.389346E-17  2.934886E-01    1 
 5.000000E-01  5.000000E-01  2.050000E+01  4.062883E+01  1.641035E+07  1.641637E+07  9.883190E-01  1.168099E-02  0.000000E+00  1.024000E+03  1.560560E+02  3.389865E-17  2.937233E-01    1 
 5.000000E-01  5.000000E-01  2.150000E+01  4.058782E+01  1.640031E+07  1.640636E+07  9.882531E-01  1.174693E-02  0.000000E+00  1.024000E+03  1.559920E+02  3.390384E-17  2.939581E-01    1 
 5.000000E-01  5.000000E-01  2.250000E+01  4.054680E+01  1.639028E+07  1.639635E+07  9.881877E-01  1.181230E-02  0.000000E+00  1.024000E+03  1.559280E+02  3.390904E-17  2.941932E-01    1 
 5.000000E-01  5.000000E-01  2.350000E+01  4.050579E+01  1.638024E+07  1.638634E+07  9.881229E-01  1.187712E-02  0.000000E+00  1.024000E+03  1.558639E+02  3.391424E-17  2.944285E-01    1 
 5.000000E-01  5.000000E-01  2.450000E+01  4.046478E+01  1.637020E+07  1.637633E+07  9.880586E-01  1.194142E-02  0.000000E+00  1.024000E+03  1.557998E+02  3.391945E-17  2.946639E-01    1 
 5.000000E-01  5.000000E-01  2.550000E+01  4.042377E+01  1.636017E+07  1.636632E+07  9.879948E-01  1.200522E-02  0.000000E+00  1.024000E+03  1.557356E+02  3.392466E-17  2.948996E-01    1 
 5.000000E-01  5.000000E-01  2.650000E+01  4.038277E+01  1.635013E+07  1.635631E+07  9.879314E-01  1.206857E-02  0.000000E+00  1.024000E+03  1.556715E+02  3.392988E-17  2.951354E-01    1 
 5.000000E-01  5.000000E-01  2.750000E+01  4.034177E+01  1.634010E+07  1.634630E+07  9.878685E-01  1.213148E-02  0.000000E+00  1.024000E+03  1.556073E+02  3.393510E-17  2.953714E-01    1 
 5.000000E-01  5.000000E-01  2.850000E+01  4.030077E+01  1.633006E+07  1.633629E+07  9.878060E-01  1.219400E-02  0.000000E+00  1.024000E+03  1.555431E+02  3.394033E-17  2.956076E-01    1 
 5.000000E-01  5.000000E-01  2.950000E+01  4.025977E+01  1.632002E+07  1.632628E+07  9.877438E-01  1.225615E-02  0.000000E+00  1.024000E+03  1.554788E+02  3.394556E-17  2.958440E-01    1 
 5.000000E-01  5.000000E-01  3.050000E+01  4.021877E+01  1.630999E+07  1.631627E+07  9.876820E-01  1.231798E-02  0.000000E+00  1.024000E+03  1.554146E+02  3.395080E-17  2.960806E-01    1 
 5.000000E-01  5.000000E-01  3.150000E+01  4.017778E+01  1.629995E+07  1.630626E+07  9.876205E-01  1.237951E-02  0.000000E+00  1.024000E+03  1.553503E+02  3.395604E-17  2.963173E-01    1 
 5.000000E-01  5.000000E-01  3.250000E+01  4.013679E+01  1.628991E+07  1.629625E+07  9.875592E-01  1.244079E-02  0.000000E+00  1.024000E+03  1.552859E+02  3.396129E-17  2.965543E-01    1 
 5.000000E-01  5.000000E-01  3.350000E+01  4.009580E+01  1.627988E+07  1.628624E+07  9.874982E-01  1.250183E-02  0.000000E+00  1.024000E+03  1.552216E+02  3.396654E-17  2.967915E-01    1 
 5.000000E-01  5.000000E-01  3.450000E+01  4.005482E+01  1.626984E+07  1.627623E+07  9.874373E-01  1.256269E-02  0.000000E+00  1.024000E+03  1.551572E+02  3.397180E-17  2.970288E-01    1 
 5.000000E-01  5.000000E-01  3.550000E+01  4.001384E+01  1.625981E+07  1.626622E+07  9.873766E-01  1.262339E-02  0.000000E+00  1.024000E+03  1.550928E+02  3.397706E-17  2.972663E-01    1 
 5.000000E-01  5.000000E-01  3.650000E+01  3.997286E+01  1.624977E+07  1.625620E+07  9.873160E-01  1.268396E-02  0.000000E+00  1.024000E+03  1.550283E+02  3.398233E-17  2.975040E-01    1 
 5.000000E-01  5.000000E-01  3.750000E+01  3.993188E+01  1.623973E+07  1.624619E+07  9.872556E-01  1.274443E-02  0.000000E+00  1.024000E+03  1.549638E+02  3.398760E-17  2.977419E-01    1 
 5.000000E-01  5.000000E-01  3.850000E+01  3.989090E+01  1.622970E+07  1.623618E+07  9.871952E-01  1.280484E-02  0.000000E+00  1.024000E+03  1.548993E+02  3.399288E-17  2.979800E-01    1 
 5.000000E-01  5.000000E-01  3.950000E+01  3.984993E+01  1.621966E+07  1.622617E+07  9.871348E-01  1.286522E-02  0.000000E+00  1.024000E+03  1.548348E+02  3.399816E-17  2.982183E-01    1 
 5.000000E-01  5.000000E-01  4.050000E+01  3.980896E+01  1.620962E+07  1.621616E+07  9.870744E-01  1.292559E-02  0.000000E+00  1.024000E+03  1.547703E+02  3.400345E-17  2.984568E-01    1 
 5.000000E-01  5.000000E-01  4.150000E+01  3.976799E+01  1.619959E+07  1.620614E+07  9.870140E-01  1.298599E-02  0.000000E+00  1.024000E+03  1.547057E+02  3.400874E-17  2.986955E-01    1 
 5.000000E-01  5.000000E-01  4.250000E+01  3.972703E+01  1.618955E+07  1.619613E+07  9.869536E-01  1.304644E-02  0.000000E+00  1.024000E+03  1.546411E+02  3.401404E-17  2.989343E-01    1 
 5.000000E-01  5.000000E-01  4.350000E+01  3.968607E+01  1.617951E+07  1.618612E+07  9.868930E-01  1.310698E-02  0.000000E+00  1.024000E+03  1.545764E+02  3.401934E-17  2.991734E-01    1 
 5.000000E-01  5.000000E-01  4.450000E+01  3.964511E+01  1.616948E+07  1.617611E+07  9.868324E-01  1.316763E-02  0.000000E+00  1.024000E+03  1.545118E+02  3.402465E-17  2.994126E-01    1 
 5.000000E-01  5.000000E-01  4.550000E+01  3.960415E+01  1.615944E+07  1.616609E+07  9.867716E-01  1.322842E-02  0.000000E+00  1.024000E+03  1.544471E+02  3.402996E-17  2.996521E-01    1 
 5.000000E-01  5.000000E-01  4.650000E+01  3.956319E+01  1.614940E+07  1.615608E+07  9.867106E-01  1.328938E-02  0.000000E+00  1.024000E+03  1.543823E+02  3.403528E-17  2.998917E-01    1 
 5.000000E-01  5.000000E-01  4.750000E+01  3.952224E+01  1.613937E+07  1.614607E+07  9.866495E-01  1.335053E-02  0.000000E+00  1.024000E+03  1.543176E+02  3.404060E-17  3.001315E-01    1 
 5.000000E-01  5.000000E-01  4.850000E+01  3.948129E+01  1.612933E+07  1.613606E+07  9.865881E-01  1.341191E-02  0.000000E+00  1.024000E+03  1.542528E+02  3.404593E-17  3.003715E-01    1 
 5.000000E-01  5.000000E-01  4.950000E+01  3.944034E+01  1.611929E+07  1.612604E+07  9.865265E-01  1.347352E-02  0.000000E+00  1.024000E+03  1.541880E+02  3.405126E-17  3.006117E-01    1 
 5.000000E-01  5.000000E-01  5.050000E+01  3.939940E+01  1.610926E+07  1.611603E+07  9.864646E-01  1.353541E-02  0.000000E+00  1.024000E+03  1.541232E+02  3.405660E-17  3.008521E-01    1 
 5.000000E-01  5.000000E-01  5.150000E+01  3.935845E+01  1.609922E+07  1.610602E+07  9.864024E-01  1.359759E-02  0.000000E+00  1.024000E+03  1.540583E+02  3.406195E-17  3.010927E-01    1 
 5.000000E-01  5.000000E-01  5.250000E+01  3.931751E+01  1.608918E+07  1.609601E+07  9.863399E-01  1.366009E-02  0.000000E+00  1.024000E+03  1.539935E+02  3.406729E-17  3.013335E-01    1 
 5.000000E-01  5.000000E-01  5.350000E+01  3.927658E+01  1.607915E+07  1.608599E+07  9.862771E-01  1.372294E-02  0.000000E+00  1.024000E+03  1.539285E+02  3.407265E-17  3.015744E-01    1 
 5.000000E-01  5.000000E-01  5.450000E+01  3.923564E+01  1.606911E+07  1.607598E+07  9.862139E-01  1.378614E-02  0.000000E+00  1.024000E+03  1.538636E+02  3.407801E-17  3.018156E-01    1 
 5.000000E-01  5.000000E-01  5.550000E+01  3.919471E+01  1.605907E+07  1.606597E+07  9.861503E-01  1.384972E-02  0.000000E+00  1.024000E+03  1.537986E+02  3.408337E-17  3.020570E-01    1 
 5.000000E-01  5.000000E-01  5.650000E+01  3.915378E+01  1.604904E+07  1.605596E+07  9.860863E-01  1.391370E-02  0.000000E+00  1.024000E+03  1.537337E+02  3.408874E-17  3.022985E-01    1 
 5.000000E-01  5.000000E-01  5.750000E+01  3.911285E+01  1.603900E+07  1.604594E+07  9.860219E-01  1.397810E-02  0.000000E+00  1.024000E+03  1.536686E+02  3.409411E-17  3.025403E-01    1 
 5.000000E-01  5.000000E-01  5.850000E+01  3.907193E+01  1.602896E+07  1.603593E+07  9.859571E-01  1.404293E-02  0.000000E+00  1.024000E+03  1.536036E+02  3.409949E-17  3.027822E-01    1 
 5.000000E-01  5.000000E-01  5.950000E+01  3.903100E+01  1.601893E+07  1.602592E+07  9.858918E-01  1.410820E-02  0.000000E+00  1.024000E+03  1.535385E+02  3.410488E-17  3.030243E-01    1 
 5.000000E-01  5.000000E-01  6.050000E+01  3.899008E+01  1.600889E+07  1.601591E+07  9.858261E-01  1.417393E-02  0.000000E+00  1.024000E+03  1.534734E+02  3.411027E-17  3.032666E-01    1 
 5.000000E-01  5.000000E-01  6.150000E+01  3.894917E+01  1.599885E+07  1.600590E+07  9.857599E-01  1.424011E-02  0.000000E+00  1.024000E+03  1.534083E+02  3.411566E-17  3.035092E-01    1 
 5.000000E-01  5.000000E-01  6.250000E+01  3.890825E+01  1.598881E+07  1.599588E+07  9.856932E-01  1.430677E-02  0.000000E+00  1.024000E+03  1.533432E+02  3.412106E-17  3.037519E-01    1 
 5.000000E-01  5.000000E-01  6.350000E+01  3.886734E+01  1.597878E+07  1.598587E+07  9.856261E-01  1.437390E-02  0.000000E+00  1.024000E+03  1.532780E+02  3.412647E-17  3.039948E-01    1 
 5.000000E-01  5.000000E-01  6.450000E+01  3.882643E+01  1.596874E+07  1.597586E+07  9.855585E-01  1.444150E-02  0.000000E+00  1.024000E+03  1.532128E+02  3.413188E-17  3.042379E-01    1 
 5.000000E-01  5.000000E-01  6.550000E+01  3.878552E+01  1.595870E+07  1.596585E+07  9.854904E-01  1.450956E-02  0.000000E+00  1.024000E+03  1.531476E+02  3.413729E-17  3.044812E-01    1 
 5.000000E-01  5.000000E-01  6.650000E+01  3.874462E+01  1.594866E+07  1.595584E+07  9.854219E-01  1.457809E-02  0.000000E+00  1.024000E+03  1.530823E+02  3.414271E-17  3.047247E-01    1 
 5.000000E-01  5.000000E-01  6.750000E+01  3.870372E+01  1.593863E+07  1.594583E+07  9.853529E-01  1.464708E-02  0.000000E+00  1.024000E+03  1.530170E+02  3.414814E-17  3.049683E-01    1 
 5.000000E-01  5.000000E-01  6.850000E+01  3.866282E+01  1.592859E+07  1.593582E+07  9.852835E-01  1.471650E-02  0.000000E+00  1.024000E+03  1.529517E+02  3.415357E-17  3.052122E-01    1 
 5.000000E-01  5.000000E-01  6.950000E+01  3.862192E+01  1.591855E+07  1.592580E+07  9.852137E-01  1.478634E-02  0.000000E+00  1.024000E+03  1.528864E+02  3.415901E-17  3.054563E-01    1 
 5.000000E-01  5.000000E-01  7.050000E+01  3.858102E+01  1.590851E+07  1.591579E+07  9.851434E-01  1.485660E-02  0.000000E+00  1.024000E+03  1.528210E+02  3.416445E-17  3.057006E-01    1 
 5.000000E-01  5.000000E-01  7.150000E+01  3.854013E+01  1.589848E+07  1.590578E+07  9.850728E-01  1.492723E-02  0.000000E+00  1.024000E+03  1.527556E+02  3.416989E-17  3.059450E-01    1 
 5.000000E-01  5.000000E-01  7.250000E+01  3.849924E+01  1.588844E+07  1.589577E+07  9.850018E-01  1.499822E-02  0.000000E+00  1.024000E+03  1.526902E+02  3.417535E-17  3.061897E-01    1 
 5.000000E-01  5.000000E-01  7.350000E+01  3.845835E+01  1.587840E+07  1.588576E+07  9.849305E-01  1.506955E-02  0.000000E+00  1.024000E+03  1.526248E+02  3.418080E-17  3.064345E-01    1 
 5.000000E-01  5.000000E-01  7.450000E+01  3.841747E+01  1.586836E+07  1.587575E+07  9.848588E-01  1.514117E-02  0.000000E+00  1.024000E+03  1.525593E+02  3.418627E-17  3.066796E-01    1 
 5.000000E-01  5.000000E-01  7.550000E+01  3.837659E+01  1.585833E+07  1.586574E+07  9.847869E-01  1.521305E-02  0.000000E+00  1.024000E+03  1.524938E+02  3.419173E-17  3.069248E-01    1 
 5.000000E-01  5.000000E-01  7.650000E+01  3.833571E+01  1.584829E+07  1.585572E+07  9.847148E-01  1.528517E-02  0.000000E+00  1.024000E+03  1.524283E+02  3.419721E-17  3.071703E-01    1 
 5.000000E-01  5.000000E-01  7.750000E+01  3.829483E+01  1.583825E+07  1.584571E+07  9.846425E-01  1.535749E-02  0.000000E+00  1.024000E+03  1.523627E+02  3.420268E-17  3.074159E-01    1 
 5.000000E-01  5.000000E-01  7.850000E+01  3.825396E+01  1.582821E+07  1.583570E+07  9.845700E-01  1.542996E-02  0.000000E+00  1.024000E+03  1.522971E+02  3.420817E-17  3.076617E-01    1 
 5.000000E-01  5.000000E-01  7.950000E+01  3.821308E+01  1.581818E+07  1.582569E+07  9.844975E-01  1.550255E-02  0.000000E+00  1.024000E+03  1.522315E+02  3.421366E-17  3.079078E-01    1 
 5.000000E-01  5.000000E-01  8.050000E+01  3.817221E+01  1.580814E+07  1.581568E+07  9.844248E-01  1.557521E-02  0.000000E+00  1.024000E+03  1.521659E+02  3.421915E-17  3.081540E-01    1 
 5.000000E-01  5.000000E-01  8.150000E+01  3.813135E+01  1.579810E+07  1.580567E+07  9.843521E-01  1.564792E-02  0.000000E+00  1.024000E+03  1.521002E+02  3.422465E-17  3.084004E-01    1 
 5.000000E-01  5.000000E-01  8.250000E+01  3.809048E+01  1.578806E+07  1.579565E+07  9.842794E-01  1.572062E-02  0.000000E+00  1.024000E+03  1.520345E+02  3.423015E-17  3.086470E-01    1 
 5.000000E-01  5.000000E-01  8.350000E+01  3.804962E+01  1.577802E+07  1.578564E+07  9.842067E-01  1.579329E-02  0.000000E+00  1.024000E+03  1.519688E+02  3.423566E-17  3.088939E-01    1 
 5.000000E-01  5.000000E-01  8.450000E+01  3.800876E+01  1.576799E+07  1.577563E+07  9.841341E-01  1.586589E-02  0.000000E+00  1.024000E+03  1.519030E+02  3.424118E-17  3.091409E-01    1 
 5.000000E-01  5.000000E-01  8.550000E+01  3.796790E+01  1.575795E+07  1.576562E+07  9.840616E-01  1.593837E-02  0.000000E+00  1.024000E+03  1.518372E+02  3.424670E-17  3.093881E-01    1 
 5.000000E-01  5.000000E-01  8.650000E+01  3.792705E+01  1.574791E+07  1.575560E+07  9.839893E-01  1.601071E-02  0.000000E+00  1.024000E+03  1.517714E+02  3.425222E-17  3.096355E-01    1 
 5.000000E-01  5.000000E-01  8.750000E+01  3.788620E+01  1.573787E+07  1.574559E+07  9.839171E-01  1.608288E-02  0.000000E+00  1.024000E+03  1.517056E+02  3.425775E-17  3.098831E-01    1 
 5.000000E-01  5.000000E-01  8.850000E+01  3.784535E+01  1.572783E+07  1.573558E+07  9.838452E-01  1.615485E-02  0.000000E+00  1.024000E+03  1.516397E+02  3.426329E-17  3.101309E-01    1 
 5.000000E-01  5.000000E-01  8.950000E+01  3.780450E+01  1.571780E+07  1.572557E+07  9.837734E-01  1.622659E-02  0.000000E+00  1.024000E+03  1.515738E+02  3.426883E-17  3.103789E-01    1 
 5.000000E-01  5.000000E-01  9.050000E+01  3.776366E+01  1.570776E+07  1.571555E+07  9.837019E-01  1.629808E-02  0.000000E+00  1.024000E+03  1.515079E+02  3.427438E-17  3.106271E-01    1 
 5.000000E-01  5.000000E-01  9.150000E+01  3.772282E+01  1.569772E+07  1.570554E+07  9.836307E-01  1.636930E-02  0.000000E+00  1.024000E+03  1.514419E+02  3.427993E-17  3.108755E-01    1 
 5.000000E-01  5.000000E-01  9.250000E+01  3.768198E+01  1.568768E+07  1.569553E+07  9.835598E-01  1.644024E-02  0.000000E+00  1.024000E+03  1.513759E+02  3.428549E-17  3.111241E-01    1 
 5.000000E-01  5.000000E-01  9.350000E+01  3.764114E+01  1.567764E+07  1.568551E+07  9.834891E-01  1.651087E-02  0.000000E+00  1.024000E+03  1.513099E+02  3.429105E-17  3.113729E-01    1 
 5.000000E-01  5.000000E-01  9.450000E+01  3.760031E+01  1.566760E+07  1.567550E+07  9.834188E-01  1.658120E-02  0.000000E+00  1.024000E+03  1.512439E+02  3.429662E-17  3.116219E-01    1 
 5.000000E-01  5.000000E-01  9.550000E+01  3.755948E+01  1.565757E+07  1.566548E+07  9.833488E-01  1.665121E-02  0.000000E+00  1.024000E+03  1.511778E+02  3.430219E-17  3.118711E-01    1 
 5.000000E-01  5.000000E-01  9.650000E+01  3.751865E+01  1.564753E+07  1.565547E+07  9.832791E-01  1.672090E-02  0.000000E+00  1.024000E+03  1.511117E+02  3.430777E-17  3.121205E-01    1 
 5.000000E-01  5.000000E-01  9.750000E+01  3.747782E+01  1.563749E+07  1.564545E+07  9.832097E-01  1.679027E-02  0.000000E+00  1.024000E+03  1.510455E+02  3.431336E-17  3.123701E-01    1 
 5.000000E-01  5.000000E-01  9.850000E+01  3.743700E+01  1.562745E+07  1.563544E+07  9.831407E-01  1.685932E-02  0.000000E+00  1.024000E+03  1.509794E+02  3.431895E-17  3.126199E-01    1 
 5.000000E-01  5.000000E-01  9.950000E+01  3.739618E+01  1.561741E+07  1.562542E+07  9.830719E-01  1.692805E-02  0.000000E+00  1.024000E+03  1.509132E+02  3.432454E-17  3.128699E-01    1 
 5.000000E-01  5.000000E-01  1.005000E+02  3.735536E+01  1.560737E+07  1.561541E+07  9.830035E-01  1.699647E-02  0.000000E+00  1.024000E+03  1.508469E+02  3.433014E-17  3.131201E-01    1 
 5.000000E-01  5.000000E-01  1.015000E+02  3.731454E+01  1.559734E+07  1.560539E+07  9.829354E-01  1.706458E-02  0.000000E+00  1.024000E+03  1.507807E+02  3.433575E-17  3.133705E-01    1 
 5.000000E-01  5.000000E-01  1.025000E+02  3.727373E+01  1.558730E+07  1.559538E+07  9.828676E-01  1.713239E-02  0.000000E+00  1.024000E+03  1.507144E+02  3.434136E-17  3.136211E-01    1 
 5.000000E-01  5.000000E-01  1.035000E+02  3.723292E+01  1.557726E+07  1.558536E+07  9.828001E-01  1.719992E-02  0.000000E+00  1.024000E+03  1.506481E+02  3.434698E-17  3.138719E-01    1 
 5.000000E-01  5.000000E-01  1.045000E+02  3.719211E+01  1.556722E+07  1.557534E+07  9.827328E-01  1.726717E-02  0.000000E+00  1.024000E+03  1.505817E+02  3.435260E-17  3.141229E-01    1 
 5.000000E-01  5.000000E-01  1.055000E+02  3.715130E+01  1.555718E+07  1.556533E+07  9.826658E-01  1.733416E-02  0.000000E+00  1.024000E+03  1.505154E+02  3.435823E-17  3.143741E-01    1 
 5.000000E-01  5.000000E-01  1.065000E+02  3.711050E+01  1.554714E+07  1.555531E+07  9.825991E-01  1.740090E-02  0.000000E+00  1.024000E+03  1.504490E+02  3.436386E-17  3.146255E-01    1 
 5.000000E-01  5.000000E-01  1.075000E+02  3.706970E+01  1.553710E+07  1.554529E+07  9.825326E-01  1.746740E-02  0.000000E+00  1.024000E+03  1.503825E+02  3.436950E-17  3.148771E-01    1 
 5.000000E-01  5.000000E-01  1.085000E+02  3.702890E+01  1.552706E+07  1.553528E+07  9.824663E-01  1.753368E-02  0.000000E+00  1.024000E+03  1.503161E+02  3.437514E-17  3.151289E-01    1 
 5.000000E-01  5.000000E-01  1.095000E+02  3.698811E+01  1.551703E+07  1.552526E+07  9.824003E-01  1.759975E-02  0.000000E+00  1.024000E+03  1.502496E+02  3.438079E-17  3.153809E-01    1 
 5.000000E-01  5.000000E-01  1.105000E+02  3.694732E+01  1.550699E+07  1.551524E+07  9.823344E-01  1.766562E-02  0.000000E+00  1.024000E+03  1.501830E+02  3.438645E-17  3.156331E-01    1 
 5.000000E-01  5.000000E-01  1.115000E+02  3.690653E+01  1.549695E+07  1.550522E+07  9.822687E-01  1.773131E-02  0.000000E+00  1.024000E+03  1.501165E+02  3.439211E-17  3.158855E-01    1 
 5.000000E-01  5.000000E-01  1.125000E+02  3.686574E+01  1.548691E+07  1.549521E+07  9.822032E-01  1.779683E-02  0.000000E+00  1.024000E+03  1.500499E+02  3.439777E-17  3.161381E-01    1 
 5.000000E-01  5.000000E-01  1.135000E+02  3.682496E+01  1.547687E+07  1.548519E+07  9.821378E-01  1.786221E-02  0.000000E+00  1.024000E+03  1.499833E+02  3.440344E-17  3.163909E-01    1 
 5.000000E-01  5.000000E-01  1.145000E+02  3.678417E+01  1.546683E+07  1.547517E+07  9.820726E-01  1.792744E-02  0.000000E+00  1.024000E+03  1.499167E+02  3.440912E-17  3.166439E-01    1 
 5.000000E-01  5.000000E-01  1.155000E+02  3.674340E+01  1.545679E+07  1.546515E+07  9.820075E-01  1.799254E-02  0.000000E+00  1.024000E+03  1.498500E+02  3.441480E-17  3.168971E-01    1 
 5.000000E-01  5.000000E-01  1.165000E+02  3.670262E+01  1.544675E+07  1.545513E+07  9.819425E-01  1.805753E-02  0.000000E+00  1.024000E+03  1.497833E+02  3.442049E-17  3.171506E-01    1 
 5.000000E-01  5.000000E-01  1.175000E+02  3.666185E+01  1.543671E+07  1.544511E+07  9.818776E-01  1.812242E-02  0.000000E+00  1.024000E+03  1.497166E+02  3.442618E-17  3.174042E-01    1 
 5.000000E-01  5.000000E-01  1.185000E+02  3.662108E+01  1.542667E+07  1.543510E+07  9.818128E-01  1.818722E-02  0.000000E+00  1.024000E+03  1.496498E+02  3.443188E-17  3.176580E-01    1 
 5.000000E-01  5.000000E-01  1.195000E+02  3.658031E+01  1.541663E+07  1.542508E+07  9.817481E-01  1.825194E-02  0.000000E+00  1.024000E+03  1.495830E+02  3.443758E-17  3.179120E-01    1 
 5.000000E-01  5.000000E-01  1.205000E+02  3.653954E+01  1.540659E+07  1.541506E+07  9.816834E-01  1.831660E-02  0.000000E+00  1.024000E+03  1.495162E+02  3.444329E-17  3.181663E-01    1 
 5.000000E-01  5.000000E-01  1.215000E+02  3.649878E+01  1.539656E+07  1.540504E+07  9.816188E-01  1.838120E-02  0.000000E+00  1.024000E+03  1.494494E+02  3.444901E-17  3.184207E-01    1 
 5.000000E-01  5.000000E-01  1.225000E+02  3.645802E+01  1.538652E+07  1.539502E+07  9.815542E-01  1.844576E-02  0.000000E+00  1.024000E+03  1.493825E+02  3.445473E-17  3.186753E-01    1 
 5.000000E-01  5.000000E-01  1.235000E+02  3.641726E+01  1.537648E+07  1.538500E+07  9.814897E-01  1.851027E-02  0.000000E+00  1.024000E+03  1.493156E+02  3.446046E-17  3.189302E-01    1 
 5.000000E-01  5.000000E-01  1.245000E+02  3.637651E+01  1.536644E+07  1.537498E+07  9.814252E-01  1.857477E-02  0.000000E+00  1.024000E+03  1.492487E+02  3.446619E-17  3.191852E-01    1 
 5.000000E-01  5.000000E-01  1.255000E+02  3.633575E+01  1.535640E+07  1.536496E+07  9.813608E-01  1.863924E-02  0.000000E+00  1.024000E+03  1.491817E+02  3.447192E-17  3.194405E-01    1 
 5.000000E-01  5.000000E-01  1.265000E+02  3.629500E+01  1.534636E+07  1.535494E+07  9.812963E-01  1.870371E-02  0.000000E+00  1.024000E+03  1.491147E+02  3.447767E-17  3.196959E-01    1 
 5.000000E-01  5.000000E-01  1.275000E+02  3.625426E+01  1.533632E+07  1.534492E+07  9.812318E-01  1.876817E-02  0.000000E+00  1.024000E+03  1.490477E+02  3.448342E-17  3.199516E-01    1 
 5.000000E-01  5.000000E-01  1.285000E+02  3.621351E+01  1.532628E+07  1.533490E+07  9.811674E-01  1.883264E-02  0.000000E+00  1.024000E+03  1.489806E+02  3.448917E-17  3.202074E-01    1 
 5.000000E-01  5.000000E-01  1.295000E+02  3.617277E+01  1.531624E+07  1.532488E+07  9.811029E-01  1.889712E-02  0.000000E+00  1.024000E+03  1.489136E+02  3.449493E-17  3.204635E-01    1 
 5.000000E-01  5.000000E-01  1.305000E+02  3.613203E+01  1.530620E+07  1.531486E+07  9.810384E-01  1.896163E-02  0.000000E+00  1.024000E+03  1.488464E+02  3.450069E-17  3.207197E-01    1 
 5.000000E-01  5.000000E-01  1.315000E+02  3.609130E+01  1.529616E+07  1.530484E+07  9.809738E-01  1.902615E-02  0.000000E+00  1.024000E+03  1.487793E+02  3.450646E-17  3.209762E-01    1 
 5.000000E-01  5.000000E-01  1.325000E+02  3.605056E+01  1.528612E+07  1.529482E+07  9.809093E-01  1.909071E-02  0.000000E+00  1.024000E+03  1.487121E+02  3.451224E-17  3.212329E-01    1 
 5.000000E-01  5.000000E-01  1.335000E+02  3.600983E+01  1.527608E+07  1.528480E+07  9.808447E-01  1.915530E-02  0.000000E+00  1.024000E+03  1.486449E+02  3.451802E-17  3.214898E-01    1 
 5.000000E-01  5.000000E-01  1.345000E+02  3.596911E+01  1.526604E+07  1.527478E+07  9.807801E-01  1.921994E-02  0.000000E+00  1.024000E+03  1.485777E+02  3.452381E-17  3.217469E-01    1 
 5.000000E-01  5.000000E-01  1.355000E+02  3.592838E+01  1.525600E+07  1.526476E+07  9.807154E-01  1.928462E-02  0.000000E+00  1.024000E+03  1.485105E+02  3.452960E-17  3.220042E-01    1 
 5.000000E-01  5.000000E-01  1.365000E+02  3.588766E+01  1.524596E+07  1.525474E+07  9.806507E-01  1.934935E-02  0.000000E+00  1.024000E+03  1.484432E+02  3.453540E-17  3.222617E-01    1 
 5.000000E-01  5.000000E-01  1.375000E+02  3.584694E+01  1.523592E+07  1.524472E+07  9.805859E-01  1.941413E-02  0.000000E+00  1.024000E+03  1.483759E+02  3.454121E-17  3.225194E-01    1 
 5.000000E-01  5.000000E-01  1.385000E+02  3.580622E+01  1.522588E+07  1.523470E+07  9.805210E-01  1.947897E-02  0.000000E+00  1.024000E+03  1.483085E+02  3.454701E-17  3.227773E-01    1 
 5.000000E-01  5.000000E-01  1.395000E+02  3.576551E+01  1.521584E+07  1.522468E+07  9.804561E-01  1.954387E-02  0.000000E+00  1.024000E+03  1.482412E+02  3.455283E-17  3.230354E-01    1 
 5.000000E-01  5.000000E-01  1.405000E+02  3.572480E+01  1.520580E+07  1.521466E+07  9.803912E-01  1.960883E-02  0.000000E+00  1.024000E+03  1.481738E+02  3.455865E-17  3.232937E-01    1 
 5.000000E-01  5.000000E-01  1.415000E+02  3.568409E+01  1.519576E+07  1.520464E+07  9.803261E-01  1.967385E-02  0.000000E+00  1.024000E+03  1.481063E+02  3.456448E-17  3.235523E-01    1 
 5.000000E-01  5.000000E-01  1.425000E+02  3.564338E+01  1.518572E+07  1.519461E+07  9.802611E-01  1.973895E-02  0.000000E+00  1.024000E+03  1.480389E+02  3.457031E-17  3.238110E-01    1 
 5.000000E-01  5.000000E-01  1.435000E+02  3.560268E+01  1.517568E+07  1.518459E+07  9.801959E-01  1.980411E-02  0.000000E+00  1.024000E+03  1.479714E+02  3.457615E-17  3.240699E-01    1 
 5.000000E-01  5.000000E-01  1.445000E+02  3.556198E+01  1.516564E+07  1.517457E+07  9.801307E-01  1.986934E-02  0.000000E+00  1.024000E+03  1.479039E+02  3.458199E-17  3.243291E-01    1 
 5.000000E-01  5.000000E-01  1.455000E+02  3.552128E+01  1.515560E+07  1.516455E+07  9.800653E-01  1.993465E-02  0.000000E+00  1.024000E+03  1.478363E+02  3.458784E-17  3.245885E-01    1 
 5.000000E-01  5.000000E-01  1.465000E+02  3.548058E+01  1.514556E+07  1.515453E+07  9.800000E-01  2.000004E-02  0.000000E+00  1.024000E+03  1.477687E+02  3.459370E-17  3.248480E-01    1 
 5.000000E-01  5.000000E-01  1.475000E+02  3.543989E+01  1.513552E+07  1.514451E+07  9.799345E-01  2.006550E-02  0.000000E+00  1.024000E+03  1.477011E+02  3.459956E-17  3.251078E-01    1 
 5.000000E-01  5.000000E-01  1.485000E+02  3.539920E+01  1.512548E+07  1.513449E+07  9.798690E-01  2.013104E-02  0.000000E+00  1.024000E+03  1.476335E+02  3.460542E-17  3.253678E-01    1 
 5.000000E-01  5.000000E-01  1.495000E+02  3.535851E+01  1.511544E+07  1.512446E+07  9.798033E-01  2.019667E-02  0.000000E+00  1.024000E+03  1.475658E+02  3.461129E-17  3.256280E-01    1 
 5.000000E-01  5.000000E-01  1.505000E+02  3.531783E+01  1.510540E+07  1.511444E+07  9.797376E-01  2.026238E-02  0.000000E+00  1.024000E+03  1.474981E+02  3.461717E-17  3.258884E-01    1 
 5.000000E-01  5.000000E-01  1.515000E+02  3.527715E+01  1.509536E+07  1.510442E+07  9.796718E-01  2.032817E-02  0.000000E+00  1.024000E+03  1.474304E+02  3.462306E-17  3.261490E-01    1 
 5.000000E-01  5.000000E-01  1.525000E+02  3.523647E+01  1.508532E+07  1.509440E+07  9.796059E-01  2.039405E-02  0.000000E+00  1.024000E+03  1.473627E+02  3.462894E-17  3.264098E-01    1 
 5.000000E-01  5.000000E-01  1.535000E+02  3.519580E+01  1.507528E+07  1.508438E+07  9.795400E-01  2.046003E-02  0.000000E+00  1.024000E+03  1.472949E+02  3.463484E-17  3.266708E-01    1 
 5.000000E-01  5.000000E-01  1.545000E+02  3.515512E+01  1.506524E+07  1.507436E+07  9.794739E-01  2.052610E-02  0.000000E+00  1.024000E+03  1.472271E+02  3.464074E-17  3.269320E-01    1 
 5.000000E-01  5.000000E-01  1.555000E+02  3.511445E+01  1.505519E+07  1.506433E+07  9.794077E-01  2.059226E-02  0.000000E+00  1.024000E+03  1.471592E+02  3.464665E-17  3.271935E-01    1 
 5.000000E-01  5.000000E-01  1.565000E+02  3.507378E+01  1.504515E+07  1.505431E+07  9.793415E-01  2.065852E-02  0.000000E+00  1.024000E+03  1.470913E+02  3.465256E-17  3.274551E-01    1 