TITLE = "  4.90000E+03 [y]"
VARIABLES="X [m]","Y [m]","Z [m]","Temperature [C]","Liquid Pressure [Pa]","Gas Pressure [Pa]","Liquid Saturation","Gas Saturation","Hydrate Saturation","Liquid Density [kg/m^3]","Gas Density [kg/m^3]","Permeability X [m^2]","Porosity","Material ID"
ZONE T="4.90000E+03", STRANDID=1, SOLUTIONTIME=4.90000E+03, I=1, J=1, K=1000, DATAPACKING=POINT
 5.000000E-01  5.000000E-01  5.000000E-01  4.152112E+01  1.757294E+07  0.000000E+00  1.000000E+00  0.000000E+00  0.000000E+00  1.024000E+03  0.000000E+00  3.379583E-17  2.890648E-01    1 
 5.000000E-01  5.000000E-01  1.500000E+00  4.148012E+01  1.756290E+07  0.000000E+00  1.000000E+00  0.000000E+00  0.000000E+00  1.024000E+03  0.000000E+00  3.380093E-17  2.892959E-01    1 
 5.000000E-01  5.000000E-01  2.500000E+00  4.143912E+01  1.755287E+07  0.000000E+00  1.000000E+00  0.000000E+00  0.000000E+00  1.024000E+03  0.000000E+00  3.380603E-17  2.895273E-01    1 
 5.000000E-01  5.000000E-01  3.500000E+00  4.139814E+01  1.754283E+07  0.000000E+00  1.000000E+00  0.000000E+00  0.000000E+00  1.024000E+03  0.000000E+00  3.381113E-17  2.897588E-01    1 
 5.000000E-01  5.000000E-01  4.500000E+00  4.135716E+01  1.753280E+07  0.000000E+00  1.000000E+00  0.000000E+00  0.000000E+00  1.024000E+03  0.000000E+00  3.381624E-17  2.899905E-01    1 
 5.000000E-01  5.000000E-01  5.500000E+00  4.131620E+01  1.752276E+07  0.000000E+00  1.000000E+00  0.000000E+00  0.000000E+00  1.024000E+03  0.000000E+00  3.382135E-17  2.902224E-01    1 
 5.000000E-01  5.000000E-01  6.500000E+00  4.127524E+01  1.751273E+07  0.000000E+00  1.000000E+00  0.000000E+00  0.000000E+00  1.024000E+03  0.000000E+00  3.382647E-17  2.904545E-01    1 
 5.000000E-01  5.000000E-01  7.500000E+00  4.123428E+01  1.750269E+07  0.000000E+00  1.000000E+00  0.000000E+00  0.000000E+00  1.024000E+03  0.000000E+00  3.383160E-17  2.906868E-01    1 
 5.000000E-01  5.000000E-01  8.500000E+00  4.119334E+01  1.749265E+07  0.000000E+00  1.000000E+00  0.000000E+00  0.000000E+00  1.024000E+03  0.000000E+00  3.383673E-17  2.909192E-01    1 
 5.000000E-01  5.000000E-01  9.500000E+00  4.115241E+01  1.748262E+07  0.000000E+00  1.000000E+00  0.000000E+00  0.000000E+00  1.024000E+03  0.000000E+00  3.384186E-17  2.911519E-01    1 
 5.000000E-01  5.000000E-01  1.050000E+01  4.111148E+01  1.747258E+07  0.000000E+00  1.000000E+00  0.000000E+00  0.000000E+00  1.024000E+03  0.000000E+00  3.384700E-17  2.913847E-01    1 
 5.000000E-01  5.000000E-01  1.150000E+01  4.107056E+01  1.746255E+07  0.000000E+00  1.000000E+00  0.000000E+00  0.000000E+00  1.024000E+03  0.000000E+00  3.385214E-17  2.916177E-01    1 
 5.000000E-01  5.000000E-01  1.250000E+01  4.102965E+01  1.745251E+07  0.000000E+00  1.000000E+00  0.000000E+00  0.000000E+00  1.024000E+03  0.000000E+00  3.385729E-17  2.918509E-01    1 
 5.000000E-01  5.000000E-01  1.350000E+01  4.098875E+01  1.744248E+07  0.000000E+00  1.000000E+00  0.000000E+00  0.000000E+00  1.024000E+03  0.000000E+00  3.386244E-17  2.920843E-01    1 
 5.000000E-01  5.000000E-01  1.450000E+01  4.094785E+01  1.743244E+07  0.000000E+00  1.000000E+00  0.000000E+00  0.000000E+00  1.024000E+03  0.000000E+00  3.386760E-17  2.923179E-01    1 
 5.000000E-01  5.000000E-01  1.550000E+01  4.090697E+01  1.742241E+07  0.000000E+00  1.000000E+00  0.000000E+00  0.000000E+00  1.024000E+03  0.000000E+00  3.387276E-17  2.925516E-01    1 
 5.000000E-01  5.000000E-01  1.650000E+01  4.086609E+01  1.741237E+07  0.000000E+00  1.000000E+00  0.000000E+00  0.000000E+00  1.024000E+03  0.000000E+00  3.387793E-17  2.927856E-01    1 
 5.000000E-01  5.000000E-01  1.750000E+01  4.082522E+01  1.740234E+07  0.000000E+00  1.000000E+00  0.000000E+00  0.000000E+00  1.024000E+03  0.000000E+00  3.388310E-17  2.930197E-01    1 
 5.000000E-01  5.000000E-01  1.850000E+01  4.078436E+01  1.739230E+07  0.000000E+00  1.000000E+00  0.000000E+00  0.000000E+00  1.024000E+03  0.000000E+00  3.388828E-17  2.932541E-01    1 
 5.000000E-01  5.000000E-01  1.950000E+01  4.074351E+01  1.738227E+07  0.000000E+00  1.000000E+00  0.000000E+00  0.000000E+00  1.024000E+03  0.000000E+00  3.389346E-17  2.934886E-01    1 
 5.000000E-01  5.000000E-01  2.050000E+01  4.070266E+01  1.737223E+07  0.000000E+00  1.000000E+00  0.000000E+00  0.000000E+00  1.024000E+03  0.000000E+00  3.389865E-17  2.937233E-01    1 
 5.000000E-01  5.000000E-01  2.150000E+01  4.066183E+01  1.736220E+07  0.000000E+00  1.000000E+00  0.000000E+00  0.000000E+00  1.024000E+03  0.000000E+00  3.390384E-17  2.939581E-01    1 
 5.000000E-01  5.000000E-01  2.250000E+01  4.062100E+01  1.735216E+07  0.000000E+00  1.000000E+00  0.000000E+00  0.000000E+00  1.024000E+03  0.000000E+00  3.390904E-17  2.941932E-01    1 
 5.000000E-01  5.000000E-01  2.350000E+01  4.058018E+01  1.734213E+07  0.000000E+00  1.000000E+00  0.000000E+00  0.000000E+00  1.024000E+03  0.000000E+00  3.391424E-17  2.944285E-01    1 
 5.000000E-01  5.000000E-01  2.450000E+01  4.053937E+01  1.733209E+07  0.000000E+00  1.000000E+00  0.000000E+00  0.000000E+00  1.024000E+03  0.000000E+00  3.391945E-17  2.946639E-01    1 
 5.000000E-01  5.000000E-01  2.550000E+01  4.049856E+01  1.732206E+07  0.000000E+00  1.000000E+00  0.000000E+00  0.000000E+00  1.024000E+03  0.000000E+00  3.392466E-17  2.948996E-01    1 
 5.000000E-01  5.000000E-01  2.650000E+01  4.045777E+01  1.731202E+07  0.000000E+00  1.000000E+00  0.000000E+00  0.000000E+00  1.024000E+03  0.000000E+00  3.392988E-17  2.951354E-01    1 
 5.000000E-01  5.000000E-01  2.750000E+01  4.041698E+01  1.730199E+07  0.000000E+00  1.000000E+00  0.000000E+00  0.000000E+00  1.024000E+03  0.000000E+00  3.393510E-17  2.953714E-01    1 
 5.000000E-01  5.000000E-01  2.850000E+01  4.037620E+01  1.729195E+07  0.000000E+00  1.000000E+00  0.000000E+00  0.000000E+00  1.024000E+03  0.000000E+00  3.394033E-17  2.956076E-01    1 
 5.000000E-01  5.000000E-01  2.950000E+01  4.033543E+01  1.728191E+07  0.000000E+00  1.000000E+00  0.000000E+00  0.000000E+00  1.024000E+03  0.000000E+00  3.394556E-17  2.958440E-01    1 
 5.000000E-01  5.000000E-01  3.050000E+01  4.029467E+01  1.727188E+07  0.000000E+00  1.000000E+00  0.000000E+00  0.000000E+00  1.024000E+03  0.000000E+00  3.395080E-17  2.960806E-01    1 
 5.000000E-01  5.000000E-01  3.150000E+01  4.025391E+01  1.726184E+07  0.000000E+00  1.000000E+00  0.000000E+00  0.000000E+00  1.024000E+03  0.000000E+00  3.395604E-17  2.963173E-01    1 
 5.000000E-01  5.000000E-01  3.250000E+01  4.021317E+01  1.725181E+07  0.000000E+00  1.000000E+00  0.000000E+00  0.000000E+00  1.024000E+03  0.000000E+00  3.396129E-17  2.965543E-01    1 
 5.000000E-01  5.000000E-01  3.350000E+01  4.017243E+01  1.724177E+07  0.000000E+00  1.000000E+00  0.000000E+00  0.000000E+00  1.024000E+03  0.000000E+00  3.396654E-17  2.967915E-01    1 
 5.000000E-01  5.000000E-01  3.450000E+01  4.013170E+01  1.723174E+07  0.000000E+00  1.000000E+00  0.000000E+00  0.000000E+00  1.024000E+03  0.000000E+00  3.397180E-17  2.970288E-01    1 
 5.000000E-01  5.000000E-01  3.550000E+01  4.009098E+01  1.722170E+07  0.000000E+00  1.000000E+00  0.000000E+00  0.000000E+00  1.024000E+03  0.000000E+00  3.397706E-17  2.972663E-01    1 
 5.000000E-01  5.000000E-01  3.650000E+01  4.005027E+01  1.721167E+07  0.000000E+00  1.000000E+00  0.000000E+00  0.000000E+00  1.024000E+03  0.000000E+00  3.398233E-17  2.975040E-01    1 
 5.000000E-01  5.000000E-01  3.750000E+01  4.000956E+01  1.720163E+07  0.000000E+00  1.000000E+00  0.000000E+00  0.000000E+00  1.024000E+03  0.000000E+00  3.398760E-17  2.977419E-01    1 
 5.000000E-01  5.000000E-01  3.850000E+01  3.996887E+01  1.719160E+07  0.000000E+00  1.000000E+00  0.000000E+00  0.000000E+00  1.024000E+03  0.000000E+00  3.399288E-17  2.979800E-01    1 
 5.000000E-01  5.000000E-01  3.950000E+01  3.992818E+01  1.718156E+07  0.000000E+00  1.000000E+00  0.000000E+00  0.000000E+00  1.024000E+03  0.000000E+00  3.399816E-17  2.982183E-01    1 
 5.000000E-01  5.000000E-01  4.050000E+01  3.988750E+01  1.717153E+07  0.000000E+00  1.000000E+00  0.000000E+00  0.000000E+00  1.024000E+03  0.000000E+00  3.400345E-17  2.984568E-01    1 
 5.000000E-01  5.000000E-01  4.150000E+01  3.984683E+01  1.716149E+07  0.000000E+00  1.000000E+00  0.000000E+00  0.000000E+00  1.024000E+03  0.000000E+00  3.400874E-17  2.986955E-01    1 
 5.000000E-01  5.000000E-01  4.250000E+01  3.980617E+01  1.715146E+07  0.000000E+00  1.000000E+00  0.000000E+00  0.000000E+00  1.024000E+03  0.000000E+00  3.401404E-17  2.989343E-01    1 
 5.000000E-01  5.000000E-01  4.350000E+01  3.976551E+01  1.714142E+07  0.000000E+00  1.000000E+00  0.000000E+00  0.000000E+00  1.024000E+03  0.000000E+00  3.401934E-17  2.991734E-01    1 
 5.000000E-01  5.000000E-01  4.450000E+01  3.972487E+01  1.713139E+07  0.000000E+00  1.000000E+00  0.000000E+00  0.000000E+00  1.024000E+03  0.000000E+00  3.402465E-17  2.994126E-01    1 
 5.000000E-01  5.000000E-01  4.550000E+01  3.968423E+01  1.712135E+07  0.000000E+00  1.000000E+00  0.000000E+00  0.000000E+00  1.024000E+03  0.000000E+00  3.402996E-17  2.996521E-01    1 
 5.000000E-01  5.000000E-01  4.650000E+01  3.964360E+01  1.711131E+07  0.000000E+00  1.000000E+00  0.000000E+00  0.000000E+00  1.024000E+03  0.000000E+00  3.403528E-17  2.998917E-01    1 
 5.000000E-01  5.000000E-01  4.750000E+01  3.960298E+01  1.710128E+07  0.000000E+00  1.000000E+00  0.000000E+00  0.000000E+00  1.024000E+03  0.000000E+00  3.404060E-17  3.001315E-01    1 
 5.000000E-01  5.000000E-01  4.850000E+01  3.956236E+01  1.709124E+07  0.000000E+00  1.000000E+00  0.000000E+00  0.000000E+00  1.024000E+03  0.000000E+00  3.404593E-17  3.003715E-01    1 
 5.000000E-01  5.000000E-01  4.950000E+01  3.952176E+01  1.708121E+07  0.000000E+00  1.000000E+00  0.000000E+00  0.000000E+00  1.024000E+03  0.000000E+00  3.405126E-17  3.006117E-01    1 
 5.000000E-01  5.000000E-01  5.050000E+01  3.948116E+01  1.707117E+07  0.000000E+00  1.000000E+00  0.000000E+00  0.000000E+00  1.024000E+03  0.000000E+00  3.405660E-17  3.008521E-01    1 
 5.000000E-01  5.000000E-01  5.150000E+01  3.944057E+01  1.706114E+07  0.000000E+00  1.000000E+00  0.000000E+00  0.000000E+00  1.024000E+03  0.000000E+00  3.406195E-17  3.010927E-01    1 
 5.000000E-01  5.000000E-01  5.250000E+01  3.939999E+01  1.705110E+07  0.000000E+00  1.000000E+00  0.000000E+00  0.000000E+00  1.024000E+03  0.000000E+00  3.406729E-17  3.013335E-01    1 
 5.000000E-01  5.000000E-01  5.350000E+01  3.935942E+01  1.704107E+07  0.000000E+00  1.000000E+00  0.000000E+00  0.000000E+00  1.024000E+03  0.000000E+00  3.407265E-17  3.015744E-01    1 
 5.000000E-01  5.000000E-01  5.450000E+01  3.931886E+01  1.703103E+07  0.000000E+00  1.000000E+00  0.000000E+00  0.000000E+00  1.024000E+03  0.000000E+00  3.407801E-17  3.018156E-01    1 
 5.000000E-01  5.000000E-01  5.550000E+01  3.927830E+01  1.702100E+07  0.000000E+00  1.000000E+00  0.000000E+00  0.000000E+00  1.024000E+03  0.000000E+00  3.408337E-17  3.020570E-01    1 
 5.000000E-01  5.000000E-01  5.650000E+01  3.923776E+01  1.701096E+07  0.000000E+00  1.000000E+00  0.000000E+00  0.000000E+00  1.024000E+03  0.000000E+00  3.408874E-17  3.022985E-01    1 
 5.000000E-01  5.000000E-01  5.750000E+01  3.919722E+01  1.700093E+07  0.000000E+00  1.000000E+00  0.000000E+00  0.000000E+00  1.024000E+03  0.000000E+00  3.409411E-17  3.025403E-01    1 
 5.000000E-01  5.000000E-01  5.850000E+01  3.915669E+01  1.699089E+07  0.000000E+00  1.000000E+00  0.000000E+00  0.000000E+00  1.024000E+03  0.000000E+00  3.409949E-17  3.027822E-01    1 
 5.000000E-01  5.000000E-01  5.950000E+01  3.911617E+01  1.698086E+07  0.000000E+00  1.000000E+00  0.000000E+00  0.000000E+00  1.024000E+03  0.000000E+00  3.410488E-17  3.030243E-01    1 
 5.000000E-01  5.000000E-01  6.050000E+01  3.907565E+01  1.697082E+07  0.000000E+00  1.000000E+00  0.000000E+00  0.000000E+00  1.024000E+03  0.000000E+00  3.411027E-17  3.032666E-01    1 
 5.000000E-01  5.000000E-01  6.150000E+01  3.903515E+01  1.696078E+07  0.000000E+00  1.000000E+00  0.000000E+00  0.000000E+00  1.024000E+03  0.000000E+00  3.411566E-17  3.035092E-01    1 
 5.000000E-01  5.000000E-01  6.250000E+01  3.899465E+01  1.695075E+07  0.000000E+00  1.000000E+00  0.000000E+00  0.000000E+00  1.024000E+03  0.000000E+00  3.412106E-17  3.037519E-01    1 
 5.000000E-01  5.000000E-01  6.350000E+01  3.895416E+01  1.694071E+07  0.000000E+00  1.000000E+00  0.000000E+00  0.000000E+00  1.024000E+03  0.000000E+00  3.412647E-17  3.039948E-01    1 
 5.000000E-01  5.000000E-01  6.450000E+01  3.891368E+01  1.693068E+07  0.000000E+00  1.000000E+00  0.000000E+00  0.000000E+00  1.024000E+03  0.000000E+00  3.413188E-17  3.042379E-01    1 
 5.000000E-01  5.000000E-01  6.550000E+01  3.887321E+01  1.692064E+07  0.000000E+00  1.000000E+00  0.000000E+00  0.000000E+00  1.024000E+03  0.000000E+00  3.413729E-17  3.044812E-01    1 
 5.000000E-01  5.000000E-01  6.650000E+01  3.883275E+01  1.691061E+07  0.000000E+00  1.000000E+00  0.000000E+00  0.000000E+00  1.024000E+03  0.000000E+00  3.414271E-17  3.047247E-01    1 
 5.000000E-01  5.000000E-01  6.750000E+01  3.879229E+01  1.690057E+07  0.000000E+00  1.000000E+00  0.000000E+00  0.000000E+00  1.024000E+03  0.000000E+00  3.414814E-17  3.049683E-01    1 
 5.000000E-01  5.000000E-01  6.850000E+01  3.875185E+01  1.689054E+07  0.000000E+00  1.000000E+00  0.000000E+00  0.000000E+00  1.024000E+03  0.000000E+00  3.415357E-17  3.052122E-01    1 
 5.000000E-01  5.000000E-01  6.950000E+01  3.871141E+01  1.688050E+07  0.000000E+00  1.000000E+00  0.000000E+00  0.000000E+00  1.024000E+03  0.000000E+00  3.415901E-17  3.054563E-01    1 
 5.000000E-01  5.000000E-01  7.050000E+01  3.867098E+01  1.687047E+07  0.000000E+00  1.000000E+00  0.000000E+00  0.000000E+00  1.024000E+03  0.000000E+00  3.416445E-17  3.057006E-01    1 
 5.000000E-01  5.000000E-01  7.150000E+01  3.863056E+01  1.686043E+07  0.000000E+00  1.000000E+00  0.000000E+00  0.000000E+00  1.024000E+03  0.000000E+00  3.416989E-17  3.059450E-01    1 
 5.000000E-01  5.000000E-01  7.250000E+01  3.859014E+01  1.685040E+07  0.000000E+00  1.000000E+00  0.000000E+00  0.000000E+00  1.024000E+03  0.000000E+00  3.417535E-17  3.061897E-01    1 
 5.000000E-01  5.000000E-01  7.350000E+01  3.854974E+01  1.684036E+07  0.000000E+00  1.000000E+00  0.000000E+00  0.000000E+00  1.024000E+03  0.000000E+00  3.418080E-17  3.064345E-01    1 
 5.000000E-01  5.000000E-01  7.450000E+01  3.850934E+01  1.683033E+07  0.000000E+00  1.000000E+00  0.000000E+00  0.000000E+00  1.024000E+03  0.000000E+00  3.418627E-17  3.066796E-01    1 
 5.000000E-01  5.000000E-01  7.550000E+01  3.846895E+01  1.682029E+07  0.000000E+00  1.000000E+00  0.000000E+00  0.000000E+00  1.024000E+03  0.000000E+00  3.419173E-17  3.069248E-01    1 
 5.000000E-01  5.000000E-01  7.650000E+01  3.842857E+01  1.681025E+07  0.000000E+00  1.000000E+00  0.000000E+00  0.000000E+00  1.024000E+03  0.000000E+00  3.419721E-17  3.071703E-01    1 
 5.000000E-01  5.000000E-01  7.750000E+01  3.838820E+01  1.680022E+07  0.000000E+00  1.000000E+00  0.000000E+00  0.000000E+00  1.024000E+03  0.000000E+00  3.420268E-17  3.074159E-01    1 
 5.000000E-01  5.000000E-01  7.850000E+01  3.834784E+01  1.679018E+07  0.000000E+00  1.000000E+00  0.000000E+00  0.000000E+00  1.024000E+03  0.000000E+00  3.420817E-17  3.076617E-01    1 
 5.000000E-01  5.000000E-01  7.950000E+01  3.830748E+01  1.678015E+07  0.000000E+00  1.000000E+00  0.000000E+00  0.000000E+00  1.024000E+03  0.000000E+00  3.421366E-17  3.079078E-01    1 
 5.000000E-01  5.000000E-01  8.050000E+01  3.826714E+01  1.677011E+07  0.000000E+00  1.000000E+00  0.000000E+00  0.000000E+00  1.024000E+03  0.000000E+00  3.421915E-17  3.081540E-01    1 
 5.000000E-01  5.000000E-01  8.150000E+01  3.822680E+01  1.676008E+07  0.000000E+00  1.000000E+00  0.000000E+00  0.000000E+00  1.024000E+03  0.000000E+00  3.422465E-17  3.084004E-01    1 
 5.000000E-01  5.000000E-01  8.250000E+01  3.818647E+01  1.675004E+07  0.000000E+00  1.000000E+00  0.000000E+00  0.000000E+00  1.024000E+03  0.000000E+00  3.423015E-17  3.086470E-01    1 
 5.000000E-01  5.000000E-01  8.350000E+01  3.814615E+01  1.674001E+07  0.000000E+00  1.000000E+00  0.000000E+00  0.000000E+00  1.024000E+03  0.000000E+00  3.423566E-17  3.088939E-01    1 
 5.000000E-01  5.000000E-01  8.450000E+01  3.810583E+01  1.672997E+07  0.000000E+00  1.000000E+00  0.000000E+00  0.000000E+00  1.024000E+03  0.000000E+00  3.424118E-17  3.091409E-01    1 
 5.000000E-01  5.000000E-01  8.550000E+01  3.806553E+01  1.671994E+07  0.000000E+00  1.000000E+00  0.000000E+00  0.000000E+00  1.024000E+03  0.000000E+00  3.424670E-17  3.093881E-01    1 
 5.000000E-01  5.000000E-01  8.650000E+01  3.802523E+01  1.670990E+07  0.000000E+00  1.000000E+00  0.000000E+00  0.000000E+00  1.024000E+03  0.000000E+00  3.425222E-17  3.096355E-01    1 
 5.000000E-01  5.000000E-01  8.750000E+01  3.798495E+01  1.669986E+07  0.000000E+00  1.000000E+00  0.000000E+00  0.000000E+00  1.024000E+03  0.000000E+00  3.425775E-17  3.098831E-01    1 
 5.000000E-01  5.000000E-01  8.850000E+01  3.794467E+01  1.668983E+07  0.000000E+00  1.000000E+00  0.000000E+00  0.000000E+00  1.024000E+03  0.000000E+00  3.426329E-17  3.101309E-01    1 
 5.000000E-01  5.000000E-01  8.950000E+01  3.790440E+01  1.667979E+07  0.000000E+00  1.000000E+00  0.000000E+00  0.000000E+00  1.024000E+03  0.000000E+00  3.426883E-17  3.103789E-01    1 
 5.000000E-01  5.000000E-01  9.050000E+01  3.786413E+01  1.666976E+07  0.000000E+00  1.000000E+00  0.000000E+00  0.000000E+00  1.024000E+03  0.000000E+00  3.427438E-17  3.106271E-01    1 
 5.000000E-01  5.000000E-01  9.150000E+01  3.782388E+01  1.665972E+07  0.000000E+00  1.000000E+00  0.000000E+00  0.000000E+00  1.024000E+03  0.000000E+00  3.427993E-17  3.108755E-01    1 
 5.000000E-01  5.000000E-01  9.250000E+01  3.778363E+01  1.664969E+07  0.000000E+00  1.000000E+00  0.000000E+00  0.000000E+00  1.024000E+03  0.000000E+00  3.428549E-17  3.111241E-01    1 
 5.000000E-01  5.000000E-01  9.350000E+01  3.774339E+01  1.663965E+07  0.000000E+00  1.000000E+00  0.000000E+00  0.000000E+00  1.024000E+03  0.000000E+00  3.429105E-17  3.113729E-01    1 
 5.000000E-01  5.000000E-01  9.450000E+01  3.770317E+01  1.662962E+07  0.000000E+00  1.000000E+00  0.000000E+00  0.000000E+00  1.024000E+03  0.000000E+00  3.429662E-17  3.116219E-01    1 
 5.000000E-01  5.000000E-01  9.550000E+01  3.766294E+01  1.661958E+07  0.000000E+00  1.000000E+00  0.000000E+00  0.000000E+00  1.024000E+03  0.000000E+00  3.430219E-17  3.118711E-01    1 
 5.000000E-01  5.000000E-01  9.650000E+01  3.762273E+01  1.660955E+07  0.000000E+00  1.000000E+00  0.000000E+00  0.000000E+00  1.024000E+03  0.000000E+00  3.430777E-17  3.121205E-01    1 
 5.000000E-01  5.000000E-01  9.750000E+01  3.758253E+01  1.659951E+07  0.000000E+00  1.000000E+00  0.000000E+00  0.000000E+00  1.024000E+03  0.000000E+00  3.431336E-17  3.123701E-01    1 
 5.000000E-01  5.000000E-01  9.850000E+01  3.754233E+01  1.658948E+07  0.000000E+00  1.000000E+00  0.000000E+00  0.000000E+00  1.024000E+03  0.000000E+00  3.431895E-17  3.126199E-01    1 
 5.000000E-01  5.000000E-01  9.950000E+01  3.750215E+01  1.657944E+07  0.000000E+00  1.000000E+00  0.000000E+00  0.000000E+00  1.024000E+03  0.000000E+00  3.432454E-17  3.128699E-01    1 
 5.000000E-01  5.000000E-01  1.005000E+02  3.746197E+01  1.656940E+07  0.000000E+00  1.000000E+00  0.000000E+00  0.000000E+00  1.024000E+03  0.000000E+00  3.433014E-17  3.131201E-01    1 
 5.000000E-01  5.000000E-01  1.015000E+02  3.742180E+01  1.655937E+07  0.000000E+00  1.000000E+00  0.000000E+00  0.000000E+00  1.024000E+03  0.000000E+00  3.433575E-17  3.133705E-01    1 
 5.000000E-01  5.000000E-01  1.025000E+02  3.738163E+01  1.654933E+07  0.000000E+00  1.000000E+00  0.000000E+00  0.000000E+00  1.024000E+03  0.000000E+00  3.434136E-17  3.136211E-01    1 
 5.000000E-01  5.000000E-01  1.035000E+02  3.734148E+01  1.653930E+07  0.000000E+00  1.000000E+00  0.000000E+00  0.000000E+00  1.024000E+03  0.000000E+00  3.434698E-17  3.138719E-01    1 
 5.000000E-01  5.000000E-01  1.045000E+02  3.730134E+01  1.652926E+07  0.000000E+00  1.000000E+00  0.000000E+00  0.000000E+00  1.024000E+03  0.000000E+00  3.435260E-17  3.141229E-01    1 
 5.000000E-01  5.000000E-01  1.055000E+02  3.726120E+01  1.651923E+07  0.000000E+00  1.000000E+00  0.000000E+00  0.000000E+00  1.024000E+03  0.000000E+00  3.435823E-17  3.143741E-01    1 
 5.000000E-01  5.000000E-01  1.065000E+02  3.722107E+01  1.650919E+07  0.000000E+00  1.000000E+00  0.000000E+00  0.000000E+00  1.024000E+03  0.000000E+00  3.436386E-17  3.146255E-01    1 
 5.000000E-01  5.000000E-01  1.075000E+02  3.718095E+01  1.649916E+07  0.000000E+00  1.000000E+00  0.000000E+00  0.000000E+00  1.024000E+03  0.000000E+00  3.436950E-17  3.148771E-01    1 
 5.000000E-01  5.000000E-01  1.085000E+02  3.714084E+01  1.648912E+07  0.000000E+00  1.000000E+00  0.000000E+00  0.000000E+00  1.024000E+03  0.000000E+00  3.437514E-17  3.151289E-01    1 
 5.000000E-01  5.000000E-01  1.095000E+02  3.710074E+01  1.647909E+07  0.000000E+00  1.000000E+00  0.000000E+00  0.000000E+00  1.024000E+03  0.000000E+00  3.438079E-17  3.153809E-01    1 
 5.000000E-01  5.000000E-01  1.105000E+02  3.706064E+01  1.646905E+07  0.000000E+00  1.000000E+00  0.000000E+00  0.000000E+00  1.024000E+03  0.000000E+00  3.438645E-17  3.156331E-01    1 
 5.000000E-01  5.000000E-01  1.115000E+02  3.702056E+01  1.645901E+07  0.000000E+00  1.000000E+00  0.000000E+00  0.000000E+00  1.024000E+03  0.000000E+00  3.439211E-17  3.158855E-01    1 
 5.000000E-01  5.000000E-01  1.125000E+02  3.698048E+01  1.644898E+07  0.000000E+00  1.000000E+00  0.000000E+00  0.000000E+00  1.024000E+03  0.000000E+00  3.439777E-17  3.161381E-01    1 
 5.000000E-01  5.000000E-01  1.135000E+02  3.694041E+01  1.643894E+07  0.000000E+00  1.000000E+00  0.000000E+00  0.000000E+00  1.024000E+03  0.000000E+00  3.440344E-17  3.163909E-01    1 
 5.000000E-01  5.000000E-01  1.145000E+02  3.690035E+01  1.642891E+07  0.000000E+00  1.000000E+00  0.000000E+00  0.000000E+00  1.024000E+03  0.000000E+00  3.440912E-17  3.166439E-01    1 
 5.000000E-01  5.000000E-01  1.155000E+02  3.686030E+01  1.641887E+07  0.000000E+00  1.000000E+00  0.000000E+00  0.000000E+00  1.024000E+03  0.000000E+00  3.441480E-17  3.168971E-01    1 
 5.000000E-01  5.000000E-01  1.165000E+02  3.682025E+01  1.640884E+07  0.000000E+00  1.000000E+00  0.000000E+00  0.000000E+00  1.024000E+03  0.000000E+00  3.442049E-17  3.171506E-01    1 
 5.000000E-01  5.000000E-01  1.175000E+02  3.678022E+01  1.639880E+07  0.000000E+00  1.000000E+00  0.000000E+00  0.000000E+00  1.024000E+03  0.000000E+00  3.442618E-17  3.174042E-01    1 
 5.000000E-01  5.000000E-01  1.185000E+02  3.674019E+01  1.638877E+07  0.000000E+00  1.000000E+00  0.000000E+00  0.000000E+00  1.024000E+03  0.000000E+00  3.443188E-17  3.176580E-01    1 
 5.000000E-01  5.000000E-01  1.195000E+02  3.670017E+01  1.637873E+07  0.000000E+00  1.000000E+00  0.000000E+00  0.000000E+00  1.024000E+03  0.000000E+00  3.443758E-17  3.179120E-01    1 
 5.000000E-01  5.000000E-01  1.205000E+02  3.666016E+01  1.636869E+07  0.000000E+00  1.000000E+00  0.000000E+00  0.000000E+00  1.024000E+03  0.000000E+00  3.444329E-17  3.181663E-01    1 
 5.000000E-01  5.000000E-01  1.215000E+02  3.662016E+01  1.635866E+07  0.000000E+00  1.000000E+00  0.000000E+00  0.000000E+00  1.024000E+03  0.000000E+00  3.444901E-17  3.184207E-01    1 
 5.000000E-01  5.000000E-01  1.225000E+02  3.658016E+01  1.634862E+07  0.000000E+00  1.000000E+00  0.000000E+00  0.000000E+00  1.024000E+03  0.000000E+00  3.445473E-17  3.186753E-01    1 
 5.000000E-01  5.000000E-01  1.235000E+02  3.654018E+01  1.633859E+07  0.000000E+00  1.000000E+00  0.000000E+00  0.000000E+00  1.024000E+03  0.000000E+00  3.446046E-17  3.189302E-01    1 
 5.000000E-01  5.000000E-01  1.245000E+02  3.650020E+01  1.632855E+07  0.000000E+00  1.000000E+00  0.000000E+00  0.000000E+00  1.024000E+03  0.000000E+00  3.446619E-17  3.191852E-01    1 
 5.000000E-01  5.000000E-01  1.255000E+02  3.646024E+01  1.631852E+07  0.000000E+00  1.000000E+00  0.000000E+00  0.000000E+00  1.024000E+03  0.000000E+00  3.447192E-17  3.194405E-01    1 
 5.000000E-01  5.000000E-01  1.265000E+02  3.642028E+01  1.630848E+07  0.000000E+00  1.000000E+00  0.000000E+00  0.000000E+00  1.024000E+03  0.000000E+00  3.447767E-17  3.196959E-01    1 
 5.000000E-01  5.000000E-01  1.275000E+02  3.638032E+01  1.629845E+07  0.000000E+00  1.000000E+00  0.000000E+00  0.000000E+00  1.024000E+03  0.000000E+00  3.448342E-17  3.199516E-01    1 
 5.000000E-01  5.000000E-01  1.285000E+02  3.634038E+01  1.628841E+07  0.000000E+00  1.000000E+00  0.000000E+00  0.000000E+00  1.024000E+03  0.000000E+00  3.448917E-17  3.202074E-01    1 
 5.000000E-01  5.000000E-01  1.295000E+02  3.630045E+01  1.627838E+07  0.000000E+00  1.000000E+00  0.000000E+00  0.000000E+00  1.024000E+03  0.000000E+00  3.449493E-17  3.204635E-01    1 
 5.000000E-01  5.000000E-01  1.305000E+02  3.626052E+01  1.626834E+07  0.000000E+00  1.000000E+00  0.000000E+00  0.000000E+00  1.024000E+03  0.000000E+00  3.450069E-17  3.207197E-01    1 
 5.000000E-01  5.000000E-01  1.315000E+02  3.622060E+01  1.625830E+07  0.000000E+00  1.000000E+00  0.000000E+00  0.000000E+00  1.024000E+03  0.000000E+00  3.450646E-17  3.209762E-01    1 
 5.000000E-01  5.000000E-01  1.325000E+02  3.618070E+01  1.624827E+07  0.000000E+00  1.000000E+00  0.000000E+00  0.000000E+00  1.024000E+03  0.000000E+00  3.451224E-17  3.212329E-01    1 
 5.000000E-01  5.000000E-01  1.335000E+02  3.614080E+01  1.623823E+07  0.000000E+00  1.000000E+00  0.000000E+00  0.000000E+00  1.024000E+03  0.000000E+00  3.451802E-17  3.214898E-01    1 
 5.000000E-01  5.000000E-01  1.345000E+02  3.610090E+01  1.622820E+07  0.000000E+00  1.000000E+00  0.000000E+00  0.000000E+00  1.024000E+03  0.000000E+00  3.452381E-17  3.217469E-01    1 
 5.000000E-01  5.000000E-01  1.355000E+02  3.606102E+01  1.621816E+07  0.000000E+00  1.000000E+00  0.000000E+00  0.000000E+00  1.024000E+03  0.000000E+00  3.452960E-17  3.220042E-01    1 
 5.000000E-01  5.000000E-01  1.365000E+02  3.602115E+01  1.620813E+07  0.000000E+00  1.000000E+00  0.000000E+00  0.000000E+00  1.024000E+03  0.000000E+00  3.453540E-17  3.222617E-01    1 
 5.000000E-01  5.000000E-01  1.375000E+02  3.598128E+01  1.619809E+07  0.000000E+00  1.000000E+00  0.000000E+00  0.000000E+00  1.024000E+03  0.000000E+00  3.454121E-17  3.225194E-01    1 
 5.000000E-01  5.000000E-01  1.385000E+02  3.594142E+01  1.618806E+07  0.000000E+00  1.000000E+00  0.000000E+00  0.000000E+00  1.024000E+03  0.000000E+00  3.454701E-17  3.227773E-01    1 
 5.000000E-01  5.000000E-01  1.395000E+02  3.590157E+01  1.617802E+07  0.000000E+00  1.000000E+00  0.000000E+00  0.000000E+00  1.024000E+03  0.000000E+00  3.455283E-17  3.230354E-01    1 
 5.000000E-01  5.000000E-01  1.405000E+02  3.586173E+01  1.616798E+07  0.000000E+00  1.000000E+00  0.000000E+00  0.000000E+00  1.024000E+03  0.000000E+00  3.455865E-17  3.232937E-01    1 
 5.000000E-01  5.000000E-01  1.415000E+02  3.582190E+01  1.615795E+07  0.000000E+00  1.000000E+00  0.000000E+00  0.000000E+00  1.024000E+03  0.000000E+00  3.456448E-17  3.235523E-01    1 
 5.000000E-01  5.000000E-01  1.425000E+02  3.578207E+01  1.614791E+07  0.000000E+00  1.000000E+00  0.000000E+00  0.000000E+00  1.024000E+03  0.000000E+00  3.457031E-17  3.238110E-01    1 
 5.000000E-01  5.000000E-01  1.435000E+02  3.574226E+01  1.613788E+07  0.000000E+00  1.000000E+00  0.000000E+00  0.000000E+00  1.024000E+03  0.000000E+00  3.457615E-17  3.240699E-01    1 
 5.000000E-01  5.000000E-01  1.445000E+02  3.570245E+01  1.612784E+07  0.000000E+00  1.000000E+00  0.000000E+00  0.000000E+00  1.024000E+03  0.000000E+00  3.458199E-17  3.243291E-01    1 
 5.000000E-01  5.000000E-01  1.455000E+02  3.566265E+01  1.611781E+07  0.000000E+00  1.000000E+00  0.000000E+00  0.000000E+00  1.024000E+03  0.000000E+00  3.458784E-17  3.245885E-01    1 
 5.000000E-01  5.000000E-01  1.465000E+02  3.562286E+01  1.610777E+07  0.000000E+00  1.000000E+00  0.000000E+00  0.000000E+00  1.024000E+03  0.000000E+00  3.459370E-17  3.248480E-01    1 
 5.000000E-01  5.000000E-01  1.475000E+02  3.558308E+01  1.609773E+07  0.000000E+00  1.000000E+00  0.000000E+00  0.000000E+00  1.024000E+03  0.000000E+00  3.459956E-17  3.251078E-01    1 
 5.000000E-01  5.000000E-01  1.485000E+02  3.554331E+01  1.608770E+07  0.000000E+00  1.000000E+00  0.000000E+00  0.000000E+00  1.024000E+03  0.000000E+00  3.460542E-17  3.253678E-01    1 
 5.000000E-01  5.000000E-01  1.495000E+02  3.550354E+01  1.607766E+07  0.000000E+00  1.000000E+00  0.000000E+00  0.000000E+00  1.024000E+03  0.000000E+00  3.461129E-17  3.256280E-01    1 
 5.000000E-01  5.000000E-01  1.505000E+02  3.546379E+01  1.606763E+07  0.000000E+00  1.000000E+00  0.000000E+00  0.000000E+00  1.024000E+03  0.000000E+00  3.461717E-17  3.258884E-01    1 
 5.000000E-01  5.000000E-01  1.515000E+02  3.542404E+01  1.605759E+07  0.000000E+00  1.000000E+00  0.000000E+00  0.000000E+00  1.024000E+03  0.000000E+00  3.462306E-17  3.261490E-01    1 
 5.000000E-01  5.000000E-01  1.525000E+02  3.538430E+01  1.604756E+07  0.000000E+00  1.000000E+00  0.000000E+00  0.000000E+00  1.024000E+03  0.000000E+00  3.462894E-17  3.264098E-01    1 
 5.000000E-01  5.000000E-01  1.535000E+02  3.534457E+01  1.603752E+07  0.000000E+00  1.000000E+00  0.000000E+00  0.000000E+00  1.024000E+03  0.000000E+00  3.463484E-17  3.266708E-01    1 
 5.000000E-01  5.000000E-01  1.545000E+02  3.530485E+01  1.602749E+07  0.000000E+00  1.000000E+00  0.000000E+00  0.000000E+00  1.024000E+03  0.000000E+00  3.464074E-17  3.269320E-01    1 
 5.000000E-01  5.000000E-01  1.555000E+02  3.526513E+01  1.601745E+07  0.000000E+00  1.000000E+00  0.000000E+00  0.000000E+00  1.024000E+03  0.000000E+00  3.464665E-17  3.271935E-01    1 
 5.000000E-01  5.000000E-01  1.565000E+02  3.522543E+01  1.600741E+07  0.000000E+00  1.000000E+00  0.000000E+00  0.000000E+00  1.024000E+03  0.000000E+00  3.465256E-17  3.274551E-01    1 