TITLE = "  1.01800E+05 [y]"
VARIABLES="X [m]","Y [m]","Z [m]","Temperature [C]","Liquid Pressure [Pa]","Gas Pressure [Pa]","Liquid Saturation","Gas Saturation","Hydrate Saturation","Liquid Density [kg/m^3]","Gas Density [kg/m^3]","Permeability X [m^2]","Porosity","Material ID"
ZONE T="1.01800E+05", STRANDID=1, SOLUTIONTIME=1.01800E+05, I=1, J=1, K=1000, DATAPACKING=POINT
 5.000000E-01  5.000000E-01  5.000000E-01  4.140294E+01  1.665919E+07  1.666475E+07  9.893982E-01  1.060184E-02  0.000000E+00  1.024000E+03  1.577412E+02  3.379583E-17  2.890648E-01    1 
 5.000000E-01  5.000000E-01  1.500000E+00  4.136188E+01  1.664916E+07  1.665475E+07  9.893159E-01  1.068407E-02  0.000000E+00  1.024000E+03  1.576779E+02  3.380093E-17  2.892959E-01    1 
 5.000000E-01  5.000000E-01  2.500000E+00  4.132081E+01  1.663912E+07  1.664474E+07  9.892418E-01  1.075817E-02  0.000000E+00  1.024000E+03  1.576145E+02  3.380603E-17  2.895273E-01    1 
 5.000000E-01  5.000000E-01  3.500000E+00  4.127975E+01  1.662909E+07  1.663474E+07  9.891681E-01  1.083189E-02  0.000000E+00  1.024000E+03  1.575511E+02  3.381113E-17  2.897588E-01    1 
 5.000000E-01  5.000000E-01  4.500000E+00  4.123869E+01  1.661905E+07  1.662474E+07  9.890948E-01  1.090521E-02  0.000000E+00  1.024000E+03  1.574877E+02  3.381624E-17  2.899905E-01    1 
 5.000000E-01  5.000000E-01  5.500000E+00  4.119764E+01  1.660901E+07  1.661473E+07  9.890219E-01  1.097807E-02  0.000000E+00  1.024000E+03  1.574242E+02  3.382135E-17  2.902224E-01    1 
 5.000000E-01  5.000000E-01  6.500000E+00  4.115658E+01  1.659898E+07  1.660473E+07  9.889496E-01  1.105045E-02  0.000000E+00  1.024000E+03  1.573607E+02  3.382647E-17  2.904545E-01    1 
 5.000000E-01  5.000000E-01  7.500000E+00  4.111553E+01  1.658894E+07  1.659473E+07  9.888777E-01  1.112230E-02  0.000000E+00  1.024000E+03  1.572972E+02  3.383160E-17  2.906868E-01    1 
 5.000000E-01  5.000000E-01  8.500000E+00  4.107448E+01  1.657891E+07  1.658472E+07  9.888064E-01  1.119359E-02  0.000000E+00  1.024000E+03  1.572337E+02  3.383673E-17  2.909192E-01    1 
 5.000000E-01  5.000000E-01  9.500000E+00  4.103344E+01  1.656887E+07  1.657472E+07  9.887357E-01  1.126432E-02  0.000000E+00  1.024000E+03  1.571701E+02  3.384186E-17  2.911519E-01    1 
 5.000000E-01  5.000000E-01  1.050000E+01  4.099239E+01  1.655884E+07  1.656471E+07  9.886656E-01  1.133444E-02  0.000000E+00  1.024000E+03  1.571065E+02  3.384700E-17  2.913847E-01    1 
 5.000000E-01  5.000000E-01  1.150000E+01  4.095135E+01  1.654880E+07  1.655470E+07  9.885960E-01  1.140397E-02  0.000000E+00  1.024000E+03  1.570429E+02  3.385214E-17  2.916177E-01    1 
 5.000000E-01  5.000000E-01  1.250000E+01  4.091031E+01  1.653877E+07  1.654470E+07  9.885271E-01  1.147287E-02  0.000000E+00  1.024000E+03  1.569792E+02  3.385729E-17  2.918509E-01    1 
 5.000000E-01  5.000000E-01  1.350000E+01  4.086928E+01  1.652873E+07  1.653469E+07  9.884588E-01  1.154116E-02  0.000000E+00  1.024000E+03  1.569155E+02  3.386244E-17  2.920843E-01    1 
 5.000000E-01  5.000000E-01  1.450000E+01  4.082824E+01  1.651869E+07  1.652468E+07  9.883912E-01  1.160883E-02  0.000000E+00  1.024000E+03  1.568518E+02  3.386760E-17  2.923179E-01    1 
 5.000000E-01  5.000000E-01  1.550000E+01  4.078721E+01  1.650866E+07  1.651468E+07  9.883241E-01  1.167589E-02  0.000000E+00  1.024000E+03  1.567880E+02  3.387276E-17  2.925516E-01    1 
 5.000000E-01  5.000000E-01  1.650000E+01  4.074618E+01  1.649862E+07  1.650467E+07  9.882576E-01  1.174236E-02  0.000000E+00  1.024000E+03  1.567243E+02  3.387793E-17  2.927856E-01    1 
 5.000000E-01  5.000000E-01  1.750000E+01  4.070516E+01  1.648859E+07  1.649466E+07  9.881918E-01  1.180824E-02  0.000000E+00  1.024000E+03  1.566605E+02  3.388310E-17  2.930197E-01    1 
 5.000000E-01  5.000000E-01  1.850000E+01  4.066414E+01  1.647855E+07  1.648465E+07  9.881264E-01  1.187356E-02  0.000000E+00  1.024000E+03  1.565966E+02  3.388828E-17  2.932541E-01    1 
 5.000000E-01  5.000000E-01  1.950000E+01  4.062311E+01  1.646852E+07  1.647464E+07  9.880617E-01  1.193834E-02  0.000000E+00  1.024000E+03  1.565327E+02  3.389346E-17  2.934886E-01    1 
 5.000000E-01  5.000000E-01  2.050000E+01  4.058210E+01  1.645848E+07  1.646463E+07  9.879974E-01  1.200261E-02  0.000000E+00  1.024000E+03  1.564689E+02  3.389865E-17  2.937233E-01    1 
 5.000000E-01  5.000000E-01  2.150000E+01  4.054108E+01  1.644844E+07  1.645462E+07  9.879336E-01  1.206638E-02  0.000000E+00  1.024000E+03  1.564049E+02  3.390384E-17  2.939581E-01    1 
 5.000000E-01  5.000000E-01  2.250000E+01  4.050007E+01  1.643841E+07  1.644461E+07  9.878703E-01  1.212970E-02  0.000000E+00  1.024000E+03  1.563410E+02  3.390904E-17  2.941932E-01    1 
 5.000000E-01  5.000000E-01  2.350000E+01  4.045906E+01  1.642837E+07  1.643460E+07  9.878074E-01  1.219259E-02  0.000000E+00  1.024000E+03  1.562770E+02  3.391424E-17  2.944285E-01    1 
 5.000000E-01  5.000000E-01  2.450000E+01  4.041805E+01  1.641834E+07  1.642459E+07  9.877449E-01  1.225509E-02  0.000000E+00  1.024000E+03  1.562130E+02  3.391945E-17  2.946639E-01    1 
 5.000000E-01  5.000000E-01  2.550000E+01  4.037704E+01  1.640830E+07  1.641458E+07  9.876828E-01  1.231722E-02  0.000000E+00  1.024000E+03  1.561489E+02  3.392466E-17  2.948996E-01    1 
 5.000000E-01  5.000000E-01  2.650000E+01  4.033604E+01  1.639826E+07  1.640457E+07  9.876210E-01  1.237903E-02  0.000000E+00  1.024000E+03  1.560849E+02  3.392988E-17  2.951354E-01    1 
 5.000000E-01  5.000000E-01  2.750000E+01  4.029504E+01  1.638823E+07  1.639456E+07  9.875595E-01  1.244054E-02  0.000000E+00  1.024000E+03  1.560208E+02  3.393510E-17  2.953714E-01    1 
 5.000000E-01  5.000000E-01  2.850000E+01  4.025405E+01  1.637819E+07  1.638455E+07  9.874982E-01  1.250178E-02  0.000000E+00  1.024000E+03  1.559566E+02  3.394033E-17  2.956076E-01    1 
 5.000000E-01  5.000000E-01  2.950000E+01  4.021305E+01  1.636815E+07  1.637454E+07  9.874372E-01  1.256280E-02  0.000000E+00  1.024000E+03  1.558925E+02  3.394556E-17  2.958440E-01    1 
 5.000000E-01  5.000000E-01  3.050000E+01  4.017206E+01  1.635812E+07  1.636453E+07  9.873764E-01  1.262362E-02  0.000000E+00  1.024000E+03  1.558283E+02  3.395080E-17  2.960806E-01    1 
 5.000000E-01  5.000000E-01  3.150000E+01  4.013107E+01  1.634808E+07  1.635452E+07  9.873157E-01  1.268427E-02  0.000000E+00  1.024000E+03  1.557641E+02  3.395604E-17  2.963173E-01    1 
 5.000000E-01  5.000000E-01  3.250000E+01  4.009008E+01  1.633805E+07  1.634451E+07  9.872552E-01  1.274480E-02  0.000000E+00  1.024000E+03  1.556999E+02  3.396129E-17  2.965543E-01    1 
 5.000000E-01  5.000000E-01  3.350000E+01  4.004910E+01  1.632801E+07  1.633449E+07  9.871948E-01  1.280522E-02  0.000000E+00  1.024000E+03  1.556356E+02  3.396654E-17  2.967915E-01    1 
 5.000000E-01  5.000000E-01  3.450000E+01  4.000812E+01  1.631797E+07  1.632448E+07  9.871344E-01  1.286557E-02  0.000000E+00  1.024000E+03  1.555713E+02  3.397180E-17  2.970288E-01    1 
 5.000000E-01  5.000000E-01  3.550000E+01  3.996714E+01  1.630794E+07  1.631447E+07  9.870741E-01  1.292588E-02  0.000000E+00  1.024000E+03  1.555070E+02  3.397706E-17  2.972663E-01    1 
 5.000000E-01  5.000000E-01  3.650000E+01  3.992616E+01  1.629790E+07  1.630446E+07  9.870138E-01  1.298619E-02  0.000000E+00  1.024000E+03  1.554426E+02  3.398233E-17  2.975040E-01    1 
 5.000000E-01  5.000000E-01  3.750000E+01  3.988519E+01  1.628786E+07  1.629444E+07  9.869535E-01  1.304651E-02  0.000000E+00  1.024000E+03  1.553783E+02  3.398760E-17  2.977419E-01    1 
 5.000000E-01  5.000000E-01  3.850000E+01  3.984422E+01  1.627783E+07  1.628443E+07  9.868931E-01  1.310688E-02  0.000000E+00  1.024000E+03  1.553139E+02  3.399288E-17  2.979800E-01    1 
 5.000000E-01  5.000000E-01  3.950000E+01  3.980325E+01  1.626779E+07  1.627442E+07  9.868327E-01  1.316733E-02  0.000000E+00  1.024000E+03  1.552494E+02  3.399816E-17  2.982183E-01    1 
 5.000000E-01  5.000000E-01  4.050000E+01  3.976228E+01  1.625775E+07  1.626441E+07  9.867721E-01  1.322788E-02  0.000000E+00  1.024000E+03  1.551850E+02  3.400345E-17  2.984568E-01    1 
 5.000000E-01  5.000000E-01  4.150000E+01  3.972132E+01  1.624772E+07  1.625439E+07  9.867114E-01  1.328857E-02  0.000000E+00  1.024000E+03  1.551205E+02  3.400874E-17  2.986955E-01    1 
 5.000000E-01  5.000000E-01  4.250000E+01  3.968036E+01  1.623768E+07  1.624438E+07  9.866506E-01  1.334942E-02  0.000000E+00  1.024000E+03  1.550560E+02  3.401404E-17  2.989343E-01    1 
 5.000000E-01  5.000000E-01  4.350000E+01  3.963940E+01  1.622764E+07  1.623437E+07  9.865896E-01  1.341045E-02  0.000000E+00  1.024000E+03  1.549914E+02  3.401934E-17  2.991734E-01    1 
 5.000000E-01  5.000000E-01  4.450000E+01  3.959845E+01  1.621761E+07  1.622436E+07  9.865283E-01  1.347169E-02  0.000000E+00  1.024000E+03  1.549269E+02  3.402465E-17  2.994126E-01    1 
 5.000000E-01  5.000000E-01  4.550000E+01  3.955749E+01  1.620757E+07  1.621434E+07  9.864668E-01  1.353317E-02  0.000000E+00  1.024000E+03  1.548623E+02  3.402996E-17  2.996521E-01    1 
 5.000000E-01  5.000000E-01  4.650000E+01  3.951655E+01  1.619753E+07  1.620433E+07  9.864051E-01  1.359491E-02  0.000000E+00  1.024000E+03  1.547976E+02  3.403528E-17  2.998917E-01    1 
 5.000000E-01  5.000000E-01  4.750000E+01  3.947560E+01  1.618750E+07  1.619432E+07  9.863431E-01  1.365693E-02  0.000000E+00  1.024000E+03  1.547330E+02  3.404060E-17  3.001315E-01    1 
 5.000000E-01  5.000000E-01  4.850000E+01  3.943465E+01  1.617746E+07  1.618431E+07  9.862807E-01  1.371926E-02  0.000000E+00  1.024000E+03  1.546683E+02  3.404593E-17  3.003715E-01    1 
 5.000000E-01  5.000000E-01  4.950000E+01  3.939371E+01  1.616742E+07  1.617429E+07  9.862181E-01  1.378193E-02  0.000000E+00  1.024000E+03  1.546036E+02  3.405126E-17  3.006117E-01    1 
 5.000000E-01  5.000000E-01  5.050000E+01  3.935277E+01  1.615739E+07  1.616428E+07  9.861551E-01  1.384494E-02  0.000000E+00  1.024000E+03  1.545389E+02  3.405660E-17  3.008521E-01    1 
 5.000000E-01  5.000000E-01  5.150000E+01  3.931184E+01  1.614735E+07  1.615427E+07  9.860917E-01  1.390832E-02  0.000000E+00  1.024000E+03  1.544741E+02  3.406195E-17  3.010927E-01    1 
 5.000000E-01  5.000000E-01  5.250000E+01  3.927090E+01  1.613731E+07  1.614426E+07  9.860279E-01  1.397209E-02  0.000000E+00  1.024000E+03  1.544094E+02  3.406729E-17  3.013335E-01    1 
 5.000000E-01  5.000000E-01  5.350000E+01  3.922997E+01  1.612728E+07  1.613424E+07  9.859637E-01  1.403626E-02  0.000000E+00  1.024000E+03  1.543445E+02  3.407265E-17  3.015744E-01    1 
 5.000000E-01  5.000000E-01  5.450000E+01  3.918904E+01  1.611724E+07  1.612423E+07  9.858991E-01  1.410086E-02  0.000000E+00  1.024000E+03  1.542797E+02  3.407801E-17  3.018156E-01    1 
 5.000000E-01  5.000000E-01  5.550000E+01  3.914812E+01  1.610720E+07  1.611422E+07  9.858341E-01  1.416588E-02  0.000000E+00  1.024000E+03  1.542148E+02  3.408337E-17  3.020570E-01    1 
 5.000000E-01  5.000000E-01  5.650000E+01  3.910720E+01  1.609716E+07  1.610421E+07  9.857687E-01  1.423135E-02  0.000000E+00  1.024000E+03  1.541500E+02  3.408874E-17  3.022985E-01    1 
 5.000000E-01  5.000000E-01  5.750000E+01  3.906628E+01  1.608713E+07  1.609419E+07  9.857027E-01  1.429726E-02  0.000000E+00  1.024000E+03  1.540850E+02  3.409411E-17  3.025403E-01    1 
 5.000000E-01  5.000000E-01  5.850000E+01  3.902536E+01  1.607709E+07  1.608418E+07  9.856364E-01  1.436364E-02  0.000000E+00  1.024000E+03  1.540201E+02  3.409949E-17  3.027822E-01    1 
 5.000000E-01  5.000000E-01  5.950000E+01  3.898444E+01  1.606705E+07  1.607417E+07  9.855695E-01  1.443047E-02  0.000000E+00  1.024000E+03  1.539551E+02  3.410488E-17  3.030243E-01    1 
 5.000000E-01  5.000000E-01  6.050000E+01  3.894353E+01  1.605701E+07  1.606416E+07  9.855022E-01  1.449777E-02  0.000000E+00  1.024000E+03  1.538901E+02  3.411027E-17  3.032666E-01    1 
 5.000000E-01  5.000000E-01  6.150000E+01  3.890262E+01  1.604698E+07  1.605415E+07  9.854345E-01  1.456552E-02  0.000000E+00  1.024000E+03  1.538251E+02  3.411566E-17  3.035092E-01    1 
 5.000000E-01  5.000000E-01  6.250000E+01  3.886171E+01  1.603694E+07  1.604413E+07  9.853663E-01  1.463372E-02  0.000000E+00  1.024000E+03  1.537601E+02  3.412106E-17  3.037519E-01    1 
 5.000000E-01  5.000000E-01  6.350000E+01  3.882081E+01  1.602690E+07  1.603412E+07  9.852976E-01  1.470237E-02  0.000000E+00  1.024000E+03  1.536950E+02  3.412647E-17  3.039948E-01    1 
 5.000000E-01  5.000000E-01  6.450000E+01  3.877991E+01  1.601687E+07  1.602411E+07  9.852285E-01  1.477146E-02  0.000000E+00  1.024000E+03  1.536299E+02  3.413188E-17  3.042379E-01    1 
 5.000000E-01  5.000000E-01  6.550000E+01  3.873901E+01  1.600683E+07  1.601410E+07  9.851590E-01  1.484096E-02  0.000000E+00  1.024000E+03  1.535648E+02  3.413729E-17  3.044812E-01    1 
 5.000000E-01  5.000000E-01  6.650000E+01  3.869811E+01  1.599679E+07  1.600409E+07  9.850891E-01  1.491086E-02  0.000000E+00  1.024000E+03  1.534996E+02  3.414271E-17  3.047247E-01    1 
 5.000000E-01  5.000000E-01  6.750000E+01  3.865722E+01  1.598675E+07  1.599408E+07  9.850189E-01  1.498114E-02  0.000000E+00  1.024000E+03  1.534344E+02  3.414814E-17  3.049683E-01    1 
 5.000000E-01  5.000000E-01  6.850000E+01  3.861633E+01  1.597672E+07  1.598406E+07  9.849482E-01  1.505178E-02  0.000000E+00  1.024000E+03  1.533692E+02  3.415357E-17  3.052122E-01    1 
 5.000000E-01  5.000000E-01  6.950000E+01  3.857544E+01  1.596668E+07  1.597405E+07  9.848773E-01  1.512274E-02  0.000000E+00  1.024000E+03  1.533040E+02  3.415901E-17  3.054563E-01    1 
 5.000000E-01  5.000000E-01  7.050000E+01  3.853455E+01  1.595664E+07  1.596404E+07  9.848060E-01  1.519401E-02  0.000000E+00  1.024000E+03  1.532387E+02  3.416445E-17  3.057006E-01    1 
 5.000000E-01  5.000000E-01  7.150000E+01  3.849367E+01  1.594660E+07  1.595403E+07  9.847345E-01  1.526555E-02  0.000000E+00  1.024000E+03  1.531734E+02  3.416989E-17  3.059450E-01    1 
 5.000000E-01  5.000000E-01  7.250000E+01  3.845279E+01  1.593656E+07  1.594402E+07  9.846627E-01  1.533732E-02  0.000000E+00  1.024000E+03  1.531081E+02  3.417535E-17  3.061897E-01    1 
 5.000000E-01  5.000000E-01  7.350000E+01  3.841191E+01  1.592653E+07  1.593401E+07  9.845907E-01  1.540930E-02  0.000000E+00  1.024000E+03  1.530427E+02  3.418080E-17  3.064345E-01    1 
 5.000000E-01  5.000000E-01  7.450000E+01  3.837104E+01  1.591649E+07  1.592399E+07  9.845186E-01  1.548144E-02  0.000000E+00  1.024000E+03  1.529774E+02  3.418627E-17  3.066796E-01    1 
 5.000000E-01  5.000000E-01  7.550000E+01  3.833017E+01  1.590645E+07  1.591398E+07  9.844463E-01  1.555371E-02  0.000000E+00  1.024000E+03  1.529119E+02  3.419173E-17  3.069248E-01    1 
 5.000000E-01  5.000000E-01  7.650000E+01  3.828930E+01  1.589641E+07  1.590397E+07  9.843739E-01  1.562607E-02  0.000000E+00  1.024000E+03  1.528465E+02  3.419721E-17  3.071703E-01    1 
 5.000000E-01  5.000000E-01  7.750000E+01  3.824843E+01  1.588637E+07  1.589396E+07  9.843015E-01  1.569848E-02  0.000000E+00  1.024000E+03  1.527811E+02  3.420268E-17  3.074159E-01    1 
 5.000000E-01  5.000000E-01  7.850000E+01  3.820757E+01  1.587634E+07  1.588395E+07  9.842291E-01  1.577091E-02  0.000000E+00  1.024000E+03  1.527156E+02  3.420817E-17  3.076617E-01    1 
 5.000000E-01  5.000000E-01  7.950000E+01  3.816670E+01  1.586630E+07  1.587393E+07  9.841567E-01  1.584331E-02  0.000000E+00  1.024000E+03  1.526500E+02  3.421366E-17  3.079078E-01    1 
 5.000000E-01  5.000000E-01  8.050000E+01  3.812585E+01  1.585626E+07  1.586392E+07  9.840843E-01  1.591566E-02  0.000000E+00  1.024000E+03  1.525845E+02  3.421915E-17  3.081540E-01    1 
 5.000000E-01  5.000000E-01  8.150000E+01  3.808499E+01  1.584622E+07  1.585391E+07  9.840121E-01  1.598791E-02  0.000000E+00  1.024000E+03  1.525189E+02  3.422465E-17  3.084004E-01    1 
 5.000000E-01  5.000000E-01  8.250000E+01  3.804414E+01  1.583618E+07  1.584390E+07  9.839400E-01  1.606004E-02  0.000000E+00  1.024000E+03  1.524533E+02  3.423015E-17  3.086470E-01    1 
 5.000000E-01  5.000000E-01  8.350000E+01  3.800329E+01  1.582615E+07  1.583388E+07  9.838680E-01  1.613202E-02  0.000000E+00  1.024000E+03  1.523877E+02  3.423566E-17  3.088939E-01    1 
 5.000000E-01  5.000000E-01  8.450000E+01  3.796244E+01  1.581611E+07  1.582387E+07  9.837962E-01  1.620381E-02  0.000000E+00  1.024000E+03  1.523220E+02  3.424118E-17  3.091409E-01    1 
 5.000000E-01  5.000000E-01  8.550000E+01  3.792159E+01  1.580607E+07  1.581386E+07  9.837246E-01  1.627539E-02  0.000000E+00  1.024000E+03  1.522563E+02  3.424670E-17  3.093881E-01    1 
 5.000000E-01  5.000000E-01  8.650000E+01  3.788075E+01  1.579603E+07  1.580384E+07  9.836533E-01  1.634674E-02  0.000000E+00  1.024000E+03  1.521906E+02  3.425222E-17  3.096355E-01    1 
 5.000000E-01  5.000000E-01  8.750000E+01  3.783991E+01  1.578599E+07  1.579383E+07  9.835822E-01  1.641783E-02  0.000000E+00  1.024000E+03  1.521248E+02  3.425775E-17  3.098831E-01    1 
 5.000000E-01  5.000000E-01  8.850000E+01  3.779907E+01  1.577595E+07  1.578381E+07  9.835113E-01  1.648865E-02  0.000000E+00  1.024000E+03  1.520591E+02  3.426329E-17  3.101309E-01    1 
 5.000000E-01  5.000000E-01  8.950000E+01  3.775824E+01  1.576592E+07  1.577380E+07  9.834408E-01  1.655919E-02  0.000000E+00  1.024000E+03  1.519933E+02  3.426883E-17  3.103789E-01    1 
 5.000000E-01  5.000000E-01  9.050000E+01  3.771741E+01  1.575588E+07  1.576379E+07  9.833706E-01  1.662944E-02  0.000000E+00  1.024000E+03  1.519274E+02  3.427438E-17  3.106271E-01    1 
 5.000000E-01  5.000000E-01  9.150000E+01  3.767658E+01  1.574584E+07  1.575377E+07  9.833006E-01  1.669938E-02  0.000000E+00  1.024000E+03  1.518615E+02  3.427993E-17  3.108755E-01    1 
 5.000000E-01  5.000000E-01  9.250000E+01  3.763575E+01  1.573580E+07  1.574376E+07  9.832310E-01  1.676901E-02  0.000000E+00  1.024000E+03  1.517956E+02  3.428549E-17  3.111241E-01    1 
 5.000000E-01  5.000000E-01  9.350000E+01  3.759493E+01  1.572576E+07  1.573374E+07  9.831617E-01  1.683833E-02  0.000000E+00  1.024000E+03  1.517297E+02  3.429105E-17  3.113729E-01    1 
 5.000000E-01  5.000000E-01  9.450000E+01  3.755411E+01  1.571572E+07  1.572373E+07  9.830927E-01  1.690733E-02  0.000000E+00  1.024000E+03  1.516638E+02  3.429662E-17  3.116219E-01    1 
 5.000000E-01  5.000000E-01  9.550000E+01  3.751329E+01  1.570568E+07  1.571371E+07  9.830240E-01  1.697602E-02  0.000000E+00  1.024000E+03  1.515978E+02  3.430219E-17  3.118711E-01    1 
 5.000000E-01  5.000000E-01  9.650000E+01  3.747247E+01  1.569564E+07  1.570369E+07  9.829556E-01  1.704441E-02  0.000000E+00  1.024000E+03  1.515317E+02  3.430777E-17  3.121205E-01    1 
 5.000000E-01  5.000000E-01  9.750000E+01  3.743166E+01  1.568561E+07  1.569368E+07  9.828875E-01  1.711249E-02  0.000000E+00  1.024000E+03  1.514657E+02  3.431336E-17  3.123701E-01    1 
 5.000000E-01  5.000000E-01  9.850000E+01  3.739085E+01  1.567557E+07  1.568366E+07  9.828197E-01  1.718028E-02  0.000000E+00  1.024000E+03  1.513996E+02  3.431895E-17  3.126199E-01    1 
 5.000000E-01  5.000000E-01  9.950000E+01  3.735005E+01  1.566553E+07  1.567365E+07  9.827522E-01  1.724779E-02  0.000000E+00  1.024000E+03  1.513335E+02  3.432454E-17  3.128699E-01    1 
 5.000000E-01  5.000000E-01  1.005000E+02  3.730924E+01  1.565549E+07  1.566363E+07  9.826850E-01  1.731502E-02  0.000000E+00  1.024000E+03  1.512674E+02  3.433014E-17  3.131201E-01    1 
 5.000000E-01  5.000000E-01  1.015000E+02  3.726844E+01  1.564545E+07  1.565361E+07  9.826180E-01  1.738199E-02  0.000000E+00  1.024000E+03  1.512012E+02  3.433575E-17  3.133705E-01    1 
 5.000000E-01  5.000000E-01  1.025000E+02  3.722764E+01  1.563541E+07  1.564359E+07  9.825513E-01  1.744870E-02  0.000000E+00  1.024000E+03  1.511350E+02  3.434136E-17  3.136211E-01    1 
 5.000000E-01  5.000000E-01  1.035000E+02  3.718685E+01  1.562537E+07  1.563358E+07  9.824848E-01  1.751518E-02  0.000000E+00  1.024000E+03  1.510688E+02  3.434698E-17  3.138719E-01    1 
 5.000000E-01  5.000000E-01  1.045000E+02  3.714605E+01  1.561533E+07  1.562356E+07  9.824186E-01  1.758143E-02  0.000000E+00  1.024000E+03  1.510025E+02  3.435260E-17  3.141229E-01    1 
 5.000000E-01  5.000000E-01  1.055000E+02  3.710526E+01  1.560529E+07  1.561354E+07  9.823525E-01  1.764747E-02  0.000000E+00  1.024000E+03  1.509362E+02  3.435823E-17  3.143741E-01    1 
 5.000000E-01  5.000000E-01  1.065000E+02  3.706448E+01  1.559525E+07  1.560352E+07  9.822867E-01  1.771331E-02  0.000000E+00  1.024000E+03  1.508699E+02  3.436386E-17  3.146255E-01    1 
 5.000000E-01  5.000000E-01  1.075000E+02  3.702369E+01  1.558521E+07  1.559351E+07  9.822210E-01  1.777897E-02  0.000000E+00  1.024000E+03  1.508036E+02  3.436950E-17  3.148771E-01    1 
 5.000000E-01  5.000000E-01  1.085000E+02  3.698291E+01  1.557518E+07  1.558349E+07  9.821555E-01  1.784446E-02  0.000000E+00  1.024000E+03  1.507372E+02  3.437514E-17  3.151289E-01    1 
 5.000000E-01  5.000000E-01  1.095000E+02  3.694213E+01  1.556514E+07  1.557347E+07  9.820902E-01  1.790979E-02  0.000000E+00  1.024000E+03  1.506708E+02  3.438079E-17  3.153809E-01    1 
 5.000000E-01  5.000000E-01  1.105000E+02  3.690136E+01  1.555510E+07  1.556345E+07  9.820250E-01  1.797497E-02  0.000000E+00  1.024000E+03  1.506044E+02  3.438645E-17  3.156331E-01    1 
 5.000000E-01  5.000000E-01  1.115000E+02  3.686058E+01  1.554506E+07  1.555343E+07  9.819600E-01  1.804002E-02  0.000000E+00  1.024000E+03  1.505379E+02  3.439211E-17  3.158855E-01    1 
 5.000000E-01  5.000000E-01  1.125000E+02  3.681981E+01  1.553502E+07  1.554341E+07  9.818950E-01  1.810496E-02  0.000000E+00  1.024000E+03  1.504714E+02  3.439777E-17  3.161381E-01    1 
 5.000000E-01  5.000000E-01  1.135000E+02  3.677904E+01  1.552498E+07  1.553339E+07  9.818302E-01  1.816979E-02  0.000000E+00  1.024000E+03  1.504049E+02  3.440344E-17  3.163909E-01    1 
 5.000000E-01  5.000000E-01  1.145000E+02  3.673828E+01  1.551494E+07  1.552338E+07  9.817655E-01  1.823453E-02  0.000000E+00  1.024000E+03  1.503384E+02  3.440912E-17  3.166439E-01    1 
 5.000000E-01  5.000000E-01  1.155000E+02  3.669752E+01  1.550490E+07  1.551336E+07  9.817008E-01  1.829918E-02  0.000000E+00  1.024000E+03  1.502718E+02  3.441480E-17  3.168971E-01    1 
 5.000000E-01  5.000000E-01  1.165000E+02  3.665676E+01  1.549486E+07  1.550334E+07  9.816362E-01  1.836377E-02  0.000000E+00  1.024000E+03  1.502052E+02  3.442049E-17  3.171506E-01    1 
 5.000000E-01  5.000000E-01  1.175000E+02  3.661600E+01  1.548482E+07  1.549332E+07  9.815717E-01  1.842829E-02  0.000000E+00  1.024000E+03  1.501385E+02  3.442618E-17  3.174042E-01    1 
 5.000000E-01  5.000000E-01  1.185000E+02  3.657525E+01  1.547478E+07  1.548330E+07  9.815072E-01  1.849276E-02  0.000000E+00  1.024000E+03  1.500719E+02  3.443188E-17  3.176580E-01    1 
 5.000000E-01  5.000000E-01  1.195000E+02  3.653450E+01  1.546474E+07  1.547328E+07  9.814428E-01  1.855720E-02  0.000000E+00  1.024000E+03  1.500052E+02  3.443758E-17  3.179120E-01    1 
 5.000000E-01  5.000000E-01  1.205000E+02  3.649375E+01  1.545470E+07  1.546326E+07  9.813784E-01  1.862160E-02  0.000000E+00  1.024000E+03  1.499384E+02  3.444329E-17  3.181663E-01    1 
 5.000000E-01  5.000000E-01  1.215000E+02  3.645301E+01  1.544466E+07  1.545324E+07  9.813140E-01  1.868598E-02  0.000000E+00  1.024000E+03  1.498717E+02  3.444901E-17  3.184207E-01    1 
 5.000000E-01  5.000000E-01  1.225000E+02  3.641226E+01  1.543462E+07  1.544322E+07  9.812496E-01  1.875035E-02  0.000000E+00  1.024000E+03  1.498049E+02  3.445473E-17  3.186753E-01    1 
 5.000000E-01  5.000000E-01  1.235000E+02  3.637153E+01  1.542458E+07  1.543320E+07  9.811853E-01  1.881472E-02  0.000000E+00  1.024000E+03  1.497381E+02  3.446046E-17  3.189302E-01    1 
 5.000000E-01  5.000000E-01  1.245000E+02  3.633079E+01  1.541454E+07  1.542318E+07  9.811209E-01  1.887908E-02  0.000000E+00  1.024000E+03  1.496713E+02  3.446619E-17  3.191852E-01    1 
 5.000000E-01  5.000000E-01  1.255000E+02  3.629006E+01  1.540450E+07  1.541316E+07  9.810565E-01  1.894346E-02  0.000000E+00  1.024000E+03  1.496044E+02  3.447192E-17  3.194405E-01    1 
 5.000000E-01  5.000000E-01  1.265000E+02  3.624933E+01  1.539446E+07  1.540314E+07  9.809922E-01  1.900785E-02  0.000000E+00  1.024000E+03  1.495375E+02  3.447767E-17  3.196959E-01    1 
 5.000000E-01  5.000000E-01  1.275000E+02  3.620860E+01  1.538442E+07  1.539312E+07  9.809277E-01  1.907226E-02  0.000000E+00  1.024000E+03  1.494706E+02  3.448342E-17  3.199516E-01    1 
 5.000000E-01  5.000000E-01  1.285000E+02  3.616787E+01  1.537438E+07  1.538310E+07  9.808633E-01  1.913670E-02  0.000000E+00  1.024000E+03  1.494036E+02  3.448917E-17  3.202074E-01    1 
 5.000000E-01  5.000000E-01  1.295000E+02  3.612715E+01  1.536434E+07  1.537308E+07  9.807988E-01  1.920117E-02  0.000000E+00  1.024000E+03  1.493366E+02  3.449493E-17  3.204635E-01    1 
 5.000000E-01  5.000000E-01  1.305000E+02  3.608643E+01  1.535430E+07  1.536305E+07  9.807343E-01  1.926568E-02  0.000000E+00  1.024000E+03  1.492696E+02  3.450069E-17  3.207197E-01    1 
 5.000000E-01  5.000000E-01  1.315000E+02  3.604572E+01  1.534426E+07  1.535303E+07  9.806698E-01  1.933024E-02  0.000000E+00  1.024000E+03  1.492025E+02  3.450646E-17  3.209762E-01    1 
 5.000000E-01  5.000000E-01  1.325000E+02  3.600500E+01  1.533422E+07  1.534301E+07  9.806052E-01  1.939484E-02  0.000000E+00  1.024000E+03  1.491355E+02  3.451224E-17  3.212329E-01    1 
 5.000000E-01  5.000000E-01  1.335000E+02  3.596429E+01  1.532418E+07  1.533299E+07  9.805405E-01  1.945949E-02  0.000000E+00  1.024000E+03  1.490684E+02  3.451802E-17  3.214898E-01    1 
 5.000000E-01  5.000000E-01  1.345000E+02  3.592359E+01  1.531414E+07  1.532297E+07  9.804758E-01  1.952420E-02  0.000000E+00  1.024000E+03  1.490012E+02  3.452381E-17  3.217469E-01    1 
 5.000000E-01  5.000000E-01  1.355000E+02  3.588288E+01  1.530410E+07  1.531295E+07  9.804110E-01  1.958896E-02  0.000000E+00  1.024000E+03  1.489341E+02  3.452960E-17  3.220042E-01    1 
 5.000000E-01  5.000000E-01  1.365000E+02  3.584218E+01  1.529406E+07  1.530293E+07  9.803462E-01  1.965379E-02  0.000000E+00  1.024000E+03  1.488669E+02  3.453540E-17  3.222617E-01    1 
 5.000000E-01  5.000000E-01  1.375000E+02  3.580148E+01  1.528402E+07  1.529291E+07  9.802813E-01  1.971867E-02  0.000000E+00  1.024000E+03  1.487996E+02  3.454121E-17  3.225194E-01    1 
 5.000000E-01  5.000000E-01  1.385000E+02  3.576079E+01  1.527398E+07  1.528288E+07  9.802164E-01  1.978363E-02  0.000000E+00  1.024000E+03  1.487324E+02  3.454701E-17  3.227773E-01    1 
 5.000000E-01  5.000000E-01  1.395000E+02  3.572009E+01  1.526394E+07  1.527286E+07  9.801514E-01  1.984865E-02  0.000000E+00  1.024000E+03  1.486651E+02  3.455283E-17  3.230354E-01    1 
 5.000000E-01  5.000000E-01  1.405000E+02  3.567940E+01  1.525389E+07  1.526284E+07  9.800863E-01  1.991374E-02  0.000000E+00  1.024000E+03  1.485978E+02  3.455865E-17  3.232937E-01    1 
 5.000000E-01  5.000000E-01  1.415000E+02  3.563872E+01  1.524385E+07  1.525282E+07  9.800211E-01  1.997891E-02  0.000000E+00  1.024000E+03  1.485305E+02  3.456448E-17  3.235523E-01    1 
 5.000000E-01  5.000000E-01  1.425000E+02  3.559803E+01  1.523381E+07  1.524280E+07  9.799559E-01  2.004415E-02  0.000000E+00  1.024000E+03  1.484631E+02  3.457031E-17  3.238110E-01    1 
 5.000000E-01  5.000000E-01  1.435000E+02  3.555735E+01  1.522377E+07  1.523277E+07  9.798905E-01  2.010946E-02  0.000000E+00  1.024000E+03  1.483957E+02  3.457615E-17  3.240699E-01    1 
 5.000000E-01  5.000000E-01  1.445000E+02  3.551667E+01  1.521373E+07  1.522275E+07  9.798251E-01  2.017486E-02  0.000000E+00  1.024000E+03  1.483283E+02  3.458199E-17  3.243291E-01    1 
 5.000000E-01  5.000000E-01  1.455000E+02  3.547600E+01  1.520369E+07  1.521273E+07  9.797597E-01  2.024034E-02  0.000000E+00  1.024000E+03  1.482608E+02  3.458784E-17  3.245885E-01    1 
 5.000000E-01  5.000000E-01  1.465000E+02  3.543533E+01  1.519365E+07  1.520271E+07  9.796941E-01  2.030590E-02  0.000000E+00  1.024000E+03  1.481933E+02  3.459370E-17  3.248480E-01    1 
 5.000000E-01  5.000000E-01  1.475000E+02  3.539466E+01  1.518361E+07  1.519269E+07  9.796285E-01  2.037154E-02  0.000000E+00  1.024000E+03  1.481258E+02  3.459956E-17  3.251078E-01    1 
 5.000000E-01  5.000000E-01  1.485000E+02  3.535399E+01  1.517357E+07  1.518266E+07  9.795627E-01  2.043727E-02  0.000000E+00  1.024000E+03  1.480583E+02  3.460542E-17  3.253678E-01    1 
 5.000000E-01  5.000000E-01  1.495000E+02  3.531333E+01  1.516353E+07  1.517264E+07  9.794969E-01  2.050310E-02  0.000000E+00  1.024000E+03  1.479907E+02  3.461129E-17  3.256280E-01    1 
 5.000000E-01  5.000000E-01  1.505000E+02  3.527267E+01  1.515349E+07  1.516262E+07  9.794310E-01  2.056901E-02  0.000000E+00  1.024000E+03  1.479231E+02  3.461717E-17  3.258884E-01    1 
 5.000000E-01  5.000000E-01  1.515000E+02  3.523201E+01  1.514344E+07  1.515259E+07  9.793650E-01  2.063502E-02  0.000000E+00  1.024000E+03  1.478554E+02  3.462306E-17  3.261490E-01    1 
 5.000000E-01  5.000000E-01  1.525000E+02  3.519136E+01  1.513340E+07  1.514257E+07  9.792989E-01  2.070113E-02  0.000000E+00  1.024000E+03  1.477878E+02  3.462894E-17  3.264098E-01    1 
 5.000000E-01  5.000000E-01  1.535000E+02  3.515070E+01  1.512336E+07  1.513255E+07  9.792327E-01  2.076734E-02  0.000000E+00  1.024000E+03  1.477201E+02  3.463484E-17  3.266708E-01    1 
 5.000000E-01  5.000000E-01  1.545000E+02  3.511006E+01  1.511332E+07  1.512253E+07  9.791663E-01  2.083365E-02  0.000000E+00  1.024000E+03  1.476524E+02  3.464074E-17  3.269320E-01    1 
 5.000000E-01  5.000000E-01  1.555000E+02  3.506941E+01  1.510328E+07  1.511250E+07  9.790999E-01  2.090008E-02  0.000000E+00  1.024000E+03  1.475846E+02  3.464665E-17  3.271935E-01    1 
 5.000000E-01  5.000000E-01  1.565000E+02  3.502877E+01  1.509324E+07  1.510248E+07  9.790334E-01  2.096661E-02  0.000000E+00  1.024000E+03  1.475168E+02  3.465256E-17  3.274551E-01    1 