TITLE = "  8.35000E+04 [y]"
VARIABLES="X [m]","Y [m]","Z [m]","Temperature [C]","Liquid Pressure [Pa]","Gas Pressure [Pa]","Liquid Saturation","Gas Saturation","Hydrate Saturation","Liquid Density [kg/m^3]","Gas Density [kg/m^3]","Permeability X [m^2]","Porosity","Material ID"
ZONE T="8.35000E+04", STRANDID=1, SOLUTIONTIME=8.35000E+04, I=1, J=1, K=1000, DATAPACKING=POINT
 5.000000E-01  5.000000E-01  5.000000E-01  4.182405E+01  1.688893E+07  1.689194E+07  9.946757E-01  5.324288E-03  0.000000E+00  1.024000E+03  1.593941E+02  3.379583E-17  2.890648E-01    1 
 5.000000E-01  5.000000E-01  1.500000E+00  4.178302E+01  1.687889E+07  1.688194E+07  9.946115E-01  5.388467E-03  0.000000E+00  1.024000E+03  1.593312E+02  3.380093E-17  2.892959E-01    1 
 5.000000E-01  5.000000E-01  2.500000E+00  4.174198E+01  1.686886E+07  1.687194E+07  9.945561E-01  5.443933E-03  0.000000E+00  1.024000E+03  1.592683E+02  3.380603E-17  2.895273E-01    1 
 5.000000E-01  5.000000E-01  3.500000E+00  4.170095E+01  1.685882E+07  1.686193E+07  9.945001E-01  5.499917E-03  0.000000E+00  1.024000E+03  1.592054E+02  3.381113E-17  2.897588E-01    1 
 5.000000E-01  5.000000E-01  4.500000E+00  4.165993E+01  1.684879E+07  1.685192E+07  9.944435E-01  5.556463E-03  0.000000E+00  1.024000E+03  1.591425E+02  3.381624E-17  2.899905E-01    1 
 5.000000E-01  5.000000E-01  5.500000E+00  4.161890E+01  1.683875E+07  1.684192E+07  9.943864E-01  5.613595E-03  0.000000E+00  1.024000E+03  1.590795E+02  3.382135E-17  2.902224E-01    1 
 5.000000E-01  5.000000E-01  6.500000E+00  4.157788E+01  1.682872E+07  1.683191E+07  9.943287E-01  5.671333E-03  0.000000E+00  1.024000E+03  1.590166E+02  3.382647E-17  2.904545E-01    1 
 5.000000E-01  5.000000E-01  7.500000E+00  4.153687E+01  1.681868E+07  1.682191E+07  9.942703E-01  5.729699E-03  0.000000E+00  1.024000E+03  1.589535E+02  3.383160E-17  2.906868E-01    1 
 5.000000E-01  5.000000E-01  8.500000E+00  4.149585E+01  1.680864E+07  1.681190E+07  9.942113E-01  5.788715E-03  0.000000E+00  1.024000E+03  1.588905E+02  3.383673E-17  2.909192E-01    1 
 5.000000E-01  5.000000E-01  9.500000E+00  4.145484E+01  1.679861E+07  1.680190E+07  9.941516E-01  5.848401E-03  0.000000E+00  1.024000E+03  1.588275E+02  3.384186E-17  2.911519E-01    1 
 5.000000E-01  5.000000E-01  1.050000E+01  4.141383E+01  1.678857E+07  1.679189E+07  9.940912E-01  5.908780E-03  0.000000E+00  1.024000E+03  1.587644E+02  3.384700E-17  2.913847E-01    1 
 5.000000E-01  5.000000E-01  1.150000E+01  4.137283E+01  1.677854E+07  1.678189E+07  9.940301E-01  5.969869E-03  0.000000E+00  1.024000E+03  1.587013E+02  3.385214E-17  2.916177E-01    1 
 5.000000E-01  5.000000E-01  1.250000E+01  4.133182E+01  1.676850E+07  1.677188E+07  9.939683E-01  6.031689E-03  0.000000E+00  1.024000E+03  1.586381E+02  3.385729E-17  2.918509E-01    1 
 5.000000E-01  5.000000E-01  1.350000E+01  4.129082E+01  1.675847E+07  1.676188E+07  9.939057E-01  6.094256E-03  0.000000E+00  1.024000E+03  1.585750E+02  3.386244E-17  2.920843E-01    1 
 5.000000E-01  5.000000E-01  1.450000E+01  4.124983E+01  1.674843E+07  1.675188E+07  9.938424E-01  6.157584E-03  0.000000E+00  1.024000E+03  1.585118E+02  3.386760E-17  2.923179E-01    1 
 5.000000E-01  5.000000E-01  1.550000E+01  4.120883E+01  1.673839E+07  1.674187E+07  9.937783E-01  6.221685E-03  0.000000E+00  1.024000E+03  1.584486E+02  3.387276E-17  2.925516E-01    1 
 5.000000E-01  5.000000E-01  1.650000E+01  4.116784E+01  1.672836E+07  1.673187E+07  9.937134E-01  6.286567E-03  0.000000E+00  1.024000E+03  1.583854E+02  3.387793E-17  2.927856E-01    1 
 5.000000E-01  5.000000E-01  1.750000E+01  4.112686E+01  1.671832E+07  1.672187E+07  9.936478E-01  6.352233E-03  0.000000E+00  1.024000E+03  1.583221E+02  3.388310E-17  2.930197E-01    1 
 5.000000E-01  5.000000E-01  1.850000E+01  4.108587E+01  1.670829E+07  1.671186E+07  9.935813E-01  6.418685E-03  0.000000E+00  1.024000E+03  1.582588E+02  3.388828E-17  2.932541E-01    1 
 5.000000E-01  5.000000E-01  1.950000E+01  4.104489E+01  1.669825E+07  1.670186E+07  9.935141E-01  6.485916E-03  0.000000E+00  1.024000E+03  1.581955E+02  3.389346E-17  2.934886E-01    1 
 5.000000E-01  5.000000E-01  2.050000E+01  4.100391E+01  1.668821E+07  1.669186E+07  9.934461E-01  6.553917E-03  0.000000E+00  1.024000E+03  1.581322E+02  3.389865E-17  2.937233E-01    1 
 5.000000E-01  5.000000E-01  2.150000E+01  4.096294E+01  1.667818E+07  1.668186E+07  9.933773E-01  6.622673E-03  0.000000E+00  1.024000E+03  1.580689E+02  3.390384E-17  2.939581E-01    1 
 5.000000E-01  5.000000E-01  2.250000E+01  4.092197E+01  1.666814E+07  1.667186E+07  9.933078E-01  6.692165E-03  0.000000E+00  1.024000E+03  1.580055E+02  3.390904E-17  2.941932E-01    1 
 5.000000E-01  5.000000E-01  2.350000E+01  4.088100E+01  1.665810E+07  1.666186E+07  9.932376E-01  6.762367E-03  0.000000E+00  1.024000E+03  1.579421E+02  3.391424E-17  2.944285E-01    1 
 5.000000E-01  5.000000E-01  2.450000E+01  4.084003E+01  1.664807E+07  1.665185E+07  9.931667E-01  6.833250E-03  0.000000E+00  1.024000E+03  1.578787E+02  3.391945E-17  2.946639E-01    1 
 5.000000E-01  5.000000E-01  2.550000E+01  4.079907E+01  1.663803E+07  1.664185E+07  9.930952E-01  6.904780E-03  0.000000E+00  1.024000E+03  1.578152E+02  3.392466E-17  2.948996E-01    1 
 5.000000E-01  5.000000E-01  2.650000E+01  4.075811E+01  1.662799E+07  1.663185E+07  9.930231E-01  6.976916E-03  0.000000E+00  1.024000E+03  1.577517E+02  3.392988E-17  2.951354E-01    1 
 5.000000E-01  5.000000E-01  2.750000E+01  4.071715E+01  1.661796E+07  1.662185E+07  9.929504E-01  7.049615E-03  0.000000E+00  1.024000E+03  1.576883E+02  3.393510E-17  2.953714E-01    1 
 5.000000E-01  5.000000E-01  2.850000E+01  4.067620E+01  1.660792E+07  1.661185E+07  9.928772E-01  7.122830E-03  0.000000E+00  1.024000E+03  1.576247E+02  3.394033E-17  2.956076E-01    1 
 5.000000E-01  5.000000E-01  2.950000E+01  4.063524E+01  1.659788E+07  1.660185E+07  9.928035E-01  7.196506E-03  0.000000E+00  1.024000E+03  1.575612E+02  3.394556E-17  2.958440E-01    1 
 5.000000E-01  5.000000E-01  3.050000E+01  4.059430E+01  1.658785E+07  1.659185E+07  9.927294E-01  7.270588E-03  0.000000E+00  1.024000E+03  1.574976E+02  3.395080E-17  2.960806E-01    1 
 5.000000E-01  5.000000E-01  3.150000E+01  4.055335E+01  1.657781E+07  1.658185E+07  9.926550E-01  7.345014E-03  0.000000E+00  1.024000E+03  1.574340E+02  3.395604E-17  2.963173E-01    1 
 5.000000E-01  5.000000E-01  3.250000E+01  4.051241E+01  1.656777E+07  1.657185E+07  9.925803E-01  7.419721E-03  0.000000E+00  1.024000E+03  1.573704E+02  3.396129E-17  2.965543E-01    1 
 5.000000E-01  5.000000E-01  3.350000E+01  4.047147E+01  1.655773E+07  1.656185E+07  9.925054E-01  7.494638E-03  0.000000E+00  1.024000E+03  1.573067E+02  3.396654E-17  2.967915E-01    1 
 5.000000E-01  5.000000E-01  3.450000E+01  4.043053E+01  1.654770E+07  1.655185E+07  9.924303E-01  7.569693E-03  0.000000E+00  1.024000E+03  1.572430E+02  3.397180E-17  2.970288E-01    1 
 5.000000E-01  5.000000E-01  3.550000E+01  4.038960E+01  1.653766E+07  1.654185E+07  9.923552E-01  7.644812E-03  0.000000E+00  1.024000E+03  1.571793E+02  3.397706E-17  2.972663E-01    1 
 5.000000E-01  5.000000E-01  3.650000E+01  4.034867E+01  1.652762E+07  1.653185E+07  9.922801E-01  7.719916E-03  0.000000E+00  1.024000E+03  1.571156E+02  3.398233E-17  2.975040E-01    1 
 5.000000E-01  5.000000E-01  3.750000E+01  4.030774E+01  1.651759E+07  1.652185E+07  9.922051E-01  7.794924E-03  0.000000E+00  1.024000E+03  1.570518E+02  3.398760E-17  2.977419E-01    1 
 5.000000E-01  5.000000E-01  3.850000E+01  4.026682E+01  1.650755E+07  1.651184E+07  9.921302E-01  7.869756E-03  0.000000E+00  1.024000E+03  1.569880E+02  3.399288E-17  2.979800E-01    1 
 5.000000E-01  5.000000E-01  3.950000E+01  4.022590E+01  1.649751E+07  1.650184E+07  9.920557E-01  7.944328E-03  0.000000E+00  1.024000E+03  1.569242E+02  3.399816E-17  2.982183E-01    1 
 5.000000E-01  5.000000E-01  4.050000E+01  4.018498E+01  1.648747E+07  1.649184E+07  9.919814E-01  8.018562E-03  0.000000E+00  1.024000E+03  1.568603E+02  3.400345E-17  2.984568E-01    1 
 5.000000E-01  5.000000E-01  4.150000E+01  4.014407E+01  1.647744E+07  1.648184E+07  9.919076E-01  8.092377E-03  0.000000E+00  1.024000E+03  1.567964E+02  3.400874E-17  2.986955E-01    1 
 5.000000E-01  5.000000E-01  4.250000E+01  4.010315E+01  1.646740E+07  1.647184E+07  9.918343E-01  8.165698E-03  0.000000E+00  1.024000E+03  1.567325E+02  3.401404E-17  2.989343E-01    1 
 5.000000E-01  5.000000E-01  4.350000E+01  4.006224E+01  1.645736E+07  1.646183E+07  9.917615E-01  8.238456E-03  0.000000E+00  1.024000E+03  1.566686E+02  3.401934E-17  2.991734E-01    1 
 5.000000E-01  5.000000E-01  4.450000E+01  4.002134E+01  1.644732E+07  1.645183E+07  9.916894E-01  8.310586E-03  0.000000E+00  1.024000E+03  1.566046E+02  3.402465E-17  2.994126E-01    1 
 5.000000E-01  5.000000E-01  4.550000E+01  3.998044E+01  1.643728E+07  1.644183E+07  9.916180E-01  8.382030E-03  0.000000E+00  1.024000E+03  1.565406E+02  3.402996E-17  2.996521E-01    1 
 5.000000E-01  5.000000E-01  4.650000E+01  3.993954E+01  1.642725E+07  1.643182E+07  9.915473E-01  8.452741E-03  0.000000E+00  1.024000E+03  1.564766E+02  3.403528E-17  2.998917E-01    1 
 5.000000E-01  5.000000E-01  4.750000E+01  3.989864E+01  1.641721E+07  1.642182E+07  9.914773E-01  8.522679E-03  0.000000E+00  1.024000E+03  1.564125E+02  3.404060E-17  3.001315E-01    1 
 5.000000E-01  5.000000E-01  4.850000E+01  3.985774E+01  1.640717E+07  1.641181E+07  9.914082E-01  8.591814E-03  0.000000E+00  1.024000E+03  1.563484E+02  3.404593E-17  3.003715E-01    1 
 5.000000E-01  5.000000E-01  4.950000E+01  3.981685E+01  1.639713E+07  1.640180E+07  9.913399E-01  8.660126E-03  0.000000E+00  1.024000E+03  1.562843E+02  3.405126E-17  3.006117E-01    1 
 5.000000E-01  5.000000E-01  5.050000E+01  3.977597E+01  1.638709E+07  1.639180E+07  9.912724E-01  8.727606E-03  0.000000E+00  1.024000E+03  1.562201E+02  3.405660E-17  3.008521E-01    1 
 5.000000E-01  5.000000E-01  5.150000E+01  3.973508E+01  1.637705E+07  1.638179E+07  9.912057E-01  8.794253E-03  0.000000E+00  1.024000E+03  1.561559E+02  3.406195E-17  3.010927E-01    1 
 5.000000E-01  5.000000E-01  5.250000E+01  3.969420E+01  1.636702E+07  1.637178E+07  9.911399E-01  8.860077E-03  0.000000E+00  1.024000E+03  1.560917E+02  3.406729E-17  3.013335E-01    1 
 5.000000E-01  5.000000E-01  5.350000E+01  3.965332E+01  1.635698E+07  1.636178E+07  9.910749E-01  8.925095E-03  0.000000E+00  1.024000E+03  1.560274E+02  3.407265E-17  3.015744E-01    1 
 5.000000E-01  5.000000E-01  5.450000E+01  3.961245E+01  1.634694E+07  1.635177E+07  9.910107E-01  8.989332E-03  0.000000E+00  1.024000E+03  1.559631E+02  3.407801E-17  3.018156E-01    1 
 5.000000E-01  5.000000E-01  5.550000E+01  3.957157E+01  1.633690E+07  1.634176E+07  9.909472E-01  9.052818E-03  0.000000E+00  1.024000E+03  1.558988E+02  3.408337E-17  3.020570E-01    1 
 5.000000E-01  5.000000E-01  5.650000E+01  3.953071E+01  1.632686E+07  1.633175E+07  9.908844E-01  9.115590E-03  0.000000E+00  1.024000E+03  1.558345E+02  3.408874E-17  3.022985E-01    1 
 5.000000E-01  5.000000E-01  5.750000E+01  3.948984E+01  1.631682E+07  1.632174E+07  9.908223E-01  9.177687E-03  0.000000E+00  1.024000E+03  1.557701E+02  3.409411E-17  3.025403E-01    1 
 5.000000E-01  5.000000E-01  5.850000E+01  3.944898E+01  1.630678E+07  1.631173E+07  9.907608E-01  9.239153E-03  0.000000E+00  1.024000E+03  1.557057E+02  3.409949E-17  3.027822E-01    1 
 5.000000E-01  5.000000E-01  5.950000E+01  3.940812E+01  1.629675E+07  1.630172E+07  9.907000E-01  9.300030E-03  0.000000E+00  1.024000E+03  1.556412E+02  3.410488E-17  3.030243E-01    1 
 5.000000E-01  5.000000E-01  6.050000E+01  3.936726E+01  1.628671E+07  1.629171E+07  9.906396E-01  9.360364E-03  0.000000E+00  1.024000E+03  1.555768E+02  3.411027E-17  3.032666E-01    1 
 5.000000E-01  5.000000E-01  6.150000E+01  3.932641E+01  1.627667E+07  1.628169E+07  9.905798E-01  9.420200E-03  0.000000E+00  1.024000E+03  1.555123E+02  3.411566E-17  3.035092E-01    1 
 5.000000E-01  5.000000E-01  6.250000E+01  3.928556E+01  1.626663E+07  1.627168E+07  9.905204E-01  9.479583E-03  0.000000E+00  1.024000E+03  1.554477E+02  3.412106E-17  3.037519E-01    1 
 5.000000E-01  5.000000E-01  6.350000E+01  3.924471E+01  1.625659E+07  1.626167E+07  9.904614E-01  9.538555E-03  0.000000E+00  1.024000E+03  1.553832E+02  3.412647E-17  3.039948E-01    1 
 5.000000E-01  5.000000E-01  6.450000E+01  3.920386E+01  1.624655E+07  1.625166E+07  9.904028E-01  9.597158E-03  0.000000E+00  1.024000E+03  1.553186E+02  3.413188E-17  3.042379E-01    1 
 5.000000E-01  5.000000E-01  6.550000E+01  3.916302E+01  1.623651E+07  1.624164E+07  9.903446E-01  9.655434E-03  0.000000E+00  1.024000E+03  1.552540E+02  3.413729E-17  3.044812E-01    1 
 5.000000E-01  5.000000E-01  6.650000E+01  3.912218E+01  1.622647E+07  1.623163E+07  9.902866E-01  9.713420E-03  0.000000E+00  1.024000E+03  1.551893E+02  3.414271E-17  3.047247E-01    1 
 5.000000E-01  5.000000E-01  6.750000E+01  3.908135E+01  1.621643E+07  1.622162E+07  9.902288E-01  9.771155E-03  0.000000E+00  1.024000E+03  1.551246E+02  3.414814E-17  3.049683E-01    1 
 5.000000E-01  5.000000E-01  6.850000E+01  3.904052E+01  1.620639E+07  1.621160E+07  9.901713E-01  9.828674E-03  0.000000E+00  1.024000E+03  1.550599E+02  3.415357E-17  3.052122E-01    1 
 5.000000E-01  5.000000E-01  6.950000E+01  3.899969E+01  1.619635E+07  1.620159E+07  9.901140E-01  9.886013E-03  0.000000E+00  1.024000E+03  1.549952E+02  3.415901E-17  3.054563E-01    1 
 5.000000E-01  5.000000E-01  7.050000E+01  3.895886E+01  1.618631E+07  1.619158E+07  9.900568E-01  9.943206E-03  0.000000E+00  1.024000E+03  1.549304E+02  3.416445E-17  3.057006E-01    1 
 5.000000E-01  5.000000E-01  7.150000E+01  3.891804E+01  1.617627E+07  1.618156E+07  9.899997E-01  1.000028E-02  0.000000E+00  1.024000E+03  1.548656E+02  3.416989E-17  3.059450E-01    1 
 5.000000E-01  5.000000E-01  7.250000E+01  3.887722E+01  1.616623E+07  1.617155E+07  9.899427E-01  1.005728E-02  0.000000E+00  1.024000E+03  1.548008E+02  3.417535E-17  3.061897E-01    1 
 5.000000E-01  5.000000E-01  7.350000E+01  3.883641E+01  1.615620E+07  1.616153E+07  9.898858E-01  1.011423E-02  0.000000E+00  1.024000E+03  1.547360E+02  3.418080E-17  3.064345E-01    1 
 5.000000E-01  5.000000E-01  7.450000E+01  3.879559E+01  1.614616E+07  1.615152E+07  9.898288E-01  1.017116E-02  0.000000E+00  1.024000E+03  1.546711E+02  3.418627E-17  3.066796E-01    1 
 5.000000E-01  5.000000E-01  7.550000E+01  3.875479E+01  1.613612E+07  1.614151E+07  9.897719E-01  1.022811E-02  0.000000E+00  1.024000E+03  1.546062E+02  3.419173E-17  3.069248E-01    1 
 5.000000E-01  5.000000E-01  7.650000E+01  3.871398E+01  1.612608E+07  1.613149E+07  9.897149E-01  1.028510E-02  0.000000E+00  1.024000E+03  1.545412E+02  3.419721E-17  3.071703E-01    1 
 5.000000E-01  5.000000E-01  7.750000E+01  3.867318E+01  1.611604E+07  1.612148E+07  9.896578E-01  1.034217E-02  0.000000E+00  1.024000E+03  1.544763E+02  3.420268E-17  3.074159E-01    1 
 5.000000E-01  5.000000E-01  7.850000E+01  3.863238E+01  1.610600E+07  1.611146E+07  9.896007E-01  1.039934E-02  0.000000E+00  1.024000E+03  1.544113E+02  3.420817E-17  3.076617E-01    1 
 5.000000E-01  5.000000E-01  7.950000E+01  3.859158E+01  1.609595E+07  1.610145E+07  9.895433E-01  1.045666E-02  0.000000E+00  1.024000E+03  1.543463E+02  3.421366E-17  3.079078E-01    1 
 5.000000E-01  5.000000E-01  8.050000E+01  3.855078E+01  1.608591E+07  1.609143E+07  9.894859E-01  1.051414E-02  0.000000E+00  1.024000E+03  1.542812E+02  3.421915E-17  3.081540E-01    1 
 5.000000E-01  5.000000E-01  8.150000E+01  3.850999E+01  1.607587E+07  1.608142E+07  9.894282E-01  1.057181E-02  0.000000E+00  1.024000E+03  1.542161E+02  3.422465E-17  3.084004E-01    1 
 5.000000E-01  5.000000E-01  8.250000E+01  3.846921E+01  1.606583E+07  1.607140E+07  9.893703E-01  1.062972E-02  0.000000E+00  1.024000E+03  1.541510E+02  3.423015E-17  3.086470E-01    1 
 5.000000E-01  5.000000E-01  8.350000E+01  3.842842E+01  1.605579E+07  1.606139E+07  9.893121E-01  1.068788E-02  0.000000E+00  1.024000E+03  1.540859E+02  3.423566E-17  3.088939E-01    1 
 5.000000E-01  5.000000E-01  8.450000E+01  3.838764E+01  1.604575E+07  1.605137E+07  9.892537E-01  1.074633E-02  0.000000E+00  1.024000E+03  1.540208E+02  3.424118E-17  3.091409E-01    1 
 5.000000E-01  5.000000E-01  8.550000E+01  3.834686E+01  1.603571E+07  1.604136E+07  9.891949E-01  1.080510E-02  0.000000E+00  1.024000E+03  1.539556E+02  3.424670E-17  3.093881E-01    1 
 5.000000E-01  5.000000E-01  8.650000E+01  3.830609E+01  1.602567E+07  1.603134E+07  9.891358E-01  1.086421E-02  0.000000E+00  1.024000E+03  1.538904E+02  3.425222E-17  3.096355E-01    1 
 5.000000E-01  5.000000E-01  8.750000E+01  3.826532E+01  1.601563E+07  1.602133E+07  9.890763E-01  1.092369E-02  0.000000E+00  1.024000E+03  1.538251E+02  3.425775E-17  3.098831E-01    1 
 5.000000E-01  5.000000E-01  8.850000E+01  3.822455E+01  1.600559E+07  1.601131E+07  9.890164E-01  1.098357E-02  0.000000E+00  1.024000E+03  1.537599E+02  3.426329E-17  3.101309E-01    1 
 5.000000E-01  5.000000E-01  8.950000E+01  3.818378E+01  1.599555E+07  1.600130E+07  9.889561E-01  1.104388E-02  0.000000E+00  1.024000E+03  1.536946E+02  3.426883E-17  3.103789E-01    1 
 5.000000E-01  5.000000E-01  9.050000E+01  3.814302E+01  1.598551E+07  1.599128E+07  9.888954E-01  1.110463E-02  0.000000E+00  1.024000E+03  1.536292E+02  3.427438E-17  3.106271E-01    1 
 5.000000E-01  5.000000E-01  9.150000E+01  3.810226E+01  1.597547E+07  1.598127E+07  9.888341E-01  1.116586E-02  0.000000E+00  1.024000E+03  1.535639E+02  3.427993E-17  3.108755E-01    1 
 5.000000E-01  5.000000E-01  9.250000E+01  3.806151E+01  1.596543E+07  1.597125E+07  9.887724E-01  1.122758E-02  0.000000E+00  1.024000E+03  1.534985E+02  3.428549E-17  3.111241E-01    1 
 5.000000E-01  5.000000E-01  9.350000E+01  3.802075E+01  1.595539E+07  1.596124E+07  9.887102E-01  1.128980E-02  0.000000E+00  1.024000E+03  1.534331E+02  3.429105E-17  3.113729E-01    1 
 5.000000E-01  5.000000E-01  9.450000E+01  3.798001E+01  1.594534E+07  1.595122E+07  9.886474E-01  1.135256E-02  0.000000E+00  1.024000E+03  1.533677E+02  3.429662E-17  3.116219E-01    1 
 5.000000E-01  5.000000E-01  9.550000E+01  3.793926E+01  1.593530E+07  1.594121E+07  9.885841E-01  1.141586E-02  0.000000E+00  1.024000E+03  1.533022E+02  3.430219E-17  3.118711E-01    1 
 5.000000E-01  5.000000E-01  9.650000E+01  3.789852E+01  1.592526E+07  1.593120E+07  9.885203E-01  1.147972E-02  0.000000E+00  1.024000E+03  1.532368E+02  3.430777E-17  3.121205E-01    1 
 5.000000E-01  5.000000E-01  9.750000E+01  3.785778E+01  1.591522E+07  1.592118E+07  9.884559E-01  1.154413E-02  0.000000E+00  1.024000E+03  1.531712E+02  3.431336E-17  3.123701E-01    1 
 5.000000E-01  5.000000E-01  9.850000E+01  3.781704E+01  1.590518E+07  1.591117E+07  9.883909E-01  1.160910E-02  0.000000E+00  1.024000E+03  1.531057E+02  3.431895E-17  3.126199E-01    1 
 5.000000E-01  5.000000E-01  9.950000E+01  3.777631E+01  1.589514E+07  1.590115E+07  9.883254E-01  1.167464E-02  0.000000E+00  1.024000E+03  1.530401E+02  3.432454E-17  3.128699E-01    1 
 5.000000E-01  5.000000E-01  1.005000E+02  3.773558E+01  1.588509E+07  1.589114E+07  9.882593E-01  1.174074E-02  0.000000E+00  1.024000E+03  1.529746E+02  3.433014E-17  3.131201E-01    1 
 5.000000E-01  5.000000E-01  1.015000E+02  3.769485E+01  1.587505E+07  1.588113E+07  9.881926E-01  1.180738E-02  0.000000E+00  1.024000E+03  1.529089E+02  3.433575E-17  3.133705E-01    1 
 5.000000E-01  5.000000E-01  1.025000E+02  3.765412E+01  1.586501E+07  1.587111E+07  9.881254E-01  1.187456E-02  0.000000E+00  1.024000E+03  1.528433E+02  3.434136E-17  3.136211E-01    1 
 5.000000E-01  5.000000E-01  1.035000E+02  3.761340E+01  1.585497E+07  1.586110E+07  9.880578E-01  1.194225E-02  0.000000E+00  1.024000E+03  1.527776E+02  3.434698E-17  3.138719E-01    1 
 5.000000E-01  5.000000E-01  1.045000E+02  3.757268E+01  1.584493E+07  1.585109E+07  9.879896E-01  1.201043E-02  0.000000E+00  1.024000E+03  1.527119E+02  3.435260E-17  3.141229E-01    1 
 5.000000E-01  5.000000E-01  1.055000E+02  3.753197E+01  1.583489E+07  1.584107E+07  9.879209E-01  1.207906E-02  0.000000E+00  1.024000E+03  1.526462E+02  3.435823E-17  3.143741E-01    1 
 5.000000E-01  5.000000E-01  1.065000E+02  3.749126E+01  1.582484E+07  1.583106E+07  9.878519E-01  1.214811E-02  0.000000E+00  1.024000E+03  1.525804E+02  3.436386E-17  3.146255E-01    1 
 5.000000E-01  5.000000E-01  1.075000E+02  3.745055E+01  1.581480E+07  1.582104E+07  9.877824E-01  1.221755E-02  0.000000E+00  1.024000E+03  1.525147E+02  3.436950E-17  3.148771E-01    1 
 5.000000E-01  5.000000E-01  1.085000E+02  3.740984E+01  1.580476E+07  1.581103E+07  9.877127E-01  1.228733E-02  0.000000E+00  1.024000E+03  1.524489E+02  3.437514E-17  3.151289E-01    1 
 5.000000E-01  5.000000E-01  1.095000E+02  3.736914E+01  1.579472E+07  1.580102E+07  9.876426E-01  1.235741E-02  0.000000E+00  1.024000E+03  1.523830E+02  3.438079E-17  3.153809E-01    1 
 5.000000E-01  5.000000E-01  1.105000E+02  3.732844E+01  1.578467E+07  1.579100E+07  9.875723E-01  1.242772E-02  0.000000E+00  1.024000E+03  1.523171E+02  3.438645E-17  3.156331E-01    1 
 5.000000E-01  5.000000E-01  1.115000E+02  3.728775E+01  1.577463E+07  1.578099E+07  9.875018E-01  1.249823E-02  0.000000E+00  1.024000E+03  1.522513E+02  3.439211E-17  3.158855E-01    1 
 5.000000E-01  5.000000E-01  1.125000E+02  3.724705E+01  1.576459E+07  1.577098E+07  9.874311E-01  1.256888E-02  0.000000E+00  1.024000E+03  1.521853E+02  3.439777E-17  3.161381E-01    1 
 5.000000E-01  5.000000E-01  1.135000E+02  3.720637E+01  1.575455E+07  1.576096E+07  9.873604E-01  1.263961E-02  0.000000E+00  1.024000E+03  1.521194E+02  3.440344E-17  3.163909E-01    1 
 5.000000E-01  5.000000E-01  1.145000E+02  3.716568E+01  1.574450E+07  1.575095E+07  9.872896E-01  1.271036E-02  0.000000E+00  1.024000E+03  1.520534E+02  3.440912E-17  3.166439E-01    1 
 5.000000E-01  5.000000E-01  1.155000E+02  3.712500E+01  1.573446E+07  1.574093E+07  9.872189E-01  1.278109E-02  0.000000E+00  1.024000E+03  1.519874E+02  3.441480E-17  3.168971E-01    1 
 5.000000E-01  5.000000E-01  1.165000E+02  3.708432E+01  1.572442E+07  1.573092E+07  9.871483E-01  1.285174E-02  0.000000E+00  1.024000E+03  1.519213E+02  3.442049E-17  3.171506E-01    1 
 5.000000E-01  5.000000E-01  1.175000E+02  3.704364E+01  1.571437E+07  1.572090E+07  9.870777E-01  1.292226E-02  0.000000E+00  1.024000E+03  1.518553E+02  3.442618E-17  3.174042E-01    1 
 5.000000E-01  5.000000E-01  1.185000E+02  3.700296E+01  1.570433E+07  1.571089E+07  9.870074E-01  1.299260E-02  0.000000E+00  1.024000E+03  1.517892E+02  3.443188E-17  3.176580E-01    1 
 5.000000E-01  5.000000E-01  1.195000E+02  3.696229E+01  1.569429E+07  1.570087E+07  9.869373E-01  1.306273E-02  0.000000E+00  1.024000E+03  1.517230E+02  3.443758E-17  3.179120E-01    1 
 5.000000E-01  5.000000E-01  1.205000E+02  3.692163E+01  1.568424E+07  1.569086E+07  9.868674E-01  1.313259E-02  0.000000E+00  1.024000E+03  1.516569E+02  3.444329E-17  3.181663E-01    1 
 5.000000E-01  5.000000E-01  1.215000E+02  3.688096E+01  1.567420E+07  1.568084E+07  9.867978E-01  1.320215E-02  0.000000E+00  1.024000E+03  1.515907E+02  3.444901E-17  3.184207E-01    1 
 5.000000E-01  5.000000E-01  1.225000E+02  3.684030E+01  1.566416E+07  1.567083E+07  9.867286E-01  1.327139E-02  0.000000E+00  1.024000E+03  1.515245E+02  3.445473E-17  3.186753E-01    1 
 5.000000E-01  5.000000E-01  1.235000E+02  3.679964E+01  1.565411E+07  1.566081E+07  9.866597E-01  1.334028E-02  0.000000E+00  1.024000E+03  1.514582E+02  3.446046E-17  3.189302E-01    1 
 5.000000E-01  5.000000E-01  1.245000E+02  3.675899E+01  1.564407E+07  1.565079E+07  9.865912E-01  1.340879E-02  0.000000E+00  1.024000E+03  1.513919E+02  3.446619E-17  3.191852E-01    1 
 5.000000E-01  5.000000E-01  1.255000E+02  3.671834E+01  1.563403E+07  1.564078E+07  9.865231E-01  1.347691E-02  0.000000E+00  1.024000E+03  1.513256E+02  3.447192E-17  3.194405E-01    1 
 5.000000E-01  5.000000E-01  1.265000E+02  3.667769E+01  1.562398E+07  1.563076E+07  9.864554E-01  1.354463E-02  0.000000E+00  1.024000E+03  1.512593E+02  3.447767E-17  3.196959E-01    1 
 5.000000E-01  5.000000E-01  1.275000E+02  3.663704E+01  1.561394E+07  1.562074E+07  9.863881E-01  1.361194E-02  0.000000E+00  1.024000E+03  1.511929E+02  3.448342E-17  3.199516E-01    1 
 5.000000E-01  5.000000E-01  1.285000E+02  3.659640E+01  1.560389E+07  1.561072E+07  9.863212E-01  1.367884E-02  0.000000E+00  1.024000E+03  1.511265E+02  3.448917E-17  3.202074E-01    1 
 5.000000E-01  5.000000E-01  1.295000E+02  3.655576E+01  1.559385E+07  1.560071E+07  9.862547E-01  1.374533E-02  0.000000E+00  1.024000E+03  1.510600E+02  3.449493E-17  3.204635E-01    1 
 5.000000E-01  5.000000E-01  1.305000E+02  3.651512E+01  1.558381E+07  1.559069E+07  9.861886E-01  1.381142E-02  0.000000E+00  1.024000E+03  1.509936E+02  3.450069E-17  3.207197E-01    1 
 5.000000E-01  5.000000E-01  1.315000E+02  3.647449E+01  1.557376E+07  1.558067E+07  9.861229E-01  1.387711E-02  0.000000E+00  1.024000E+03  1.509271E+02  3.450646E-17  3.209762E-01    1 
 5.000000E-01  5.000000E-01  1.325000E+02  3.643386E+01  1.556372E+07  1.557065E+07  9.860576E-01  1.394241E-02  0.000000E+00  1.024000E+03  1.508606E+02  3.451224E-17  3.212329E-01    1 
 5.000000E-01  5.000000E-01  1.335000E+02  3.639324E+01  1.555367E+07  1.556063E+07  9.859927E-01  1.400735E-02  0.000000E+00  1.024000E+03  1.507940E+02  3.451802E-17  3.214898E-01    1 
 5.000000E-01  5.000000E-01  1.345000E+02  3.635261E+01  1.554363E+07  1.555061E+07  9.859281E-01  1.407192E-02  0.000000E+00  1.024000E+03  1.507274E+02  3.452381E-17  3.217469E-01    1 
 5.000000E-01  5.000000E-01  1.355000E+02  3.631199E+01  1.553358E+07  1.554059E+07  9.858639E-01  1.413615E-02  0.000000E+00  1.024000E+03  1.506608E+02  3.452960E-17  3.220042E-01    1 
 5.000000E-01  5.000000E-01  1.365000E+02  3.627138E+01  1.552354E+07  1.553057E+07  9.857999E-01  1.420005E-02  0.000000E+00  1.024000E+03  1.505941E+02  3.453540E-17  3.222617E-01    1 
 5.000000E-01  5.000000E-01  1.375000E+02  3.623076E+01  1.551349E+07  1.552055E+07  9.857364E-01  1.426365E-02  0.000000E+00  1.024000E+03  1.505274E+02  3.454121E-17  3.225194E-01    1 
 5.000000E-01  5.000000E-01  1.385000E+02  3.619015E+01  1.550345E+07  1.551053E+07  9.856731E-01  1.432695E-02  0.000000E+00  1.024000E+03  1.504607E+02  3.454701E-17  3.227773E-01    1 
 5.000000E-01  5.000000E-01  1.395000E+02  3.614955E+01  1.549340E+07  1.550051E+07  9.856100E-01  1.438998E-02  0.000000E+00  1.024000E+03  1.503940E+02  3.455283E-17  3.230354E-01    1 
 5.000000E-01  5.000000E-01  1.405000E+02  3.610894E+01  1.548336E+07  1.549049E+07  9.855473E-01  1.445275E-02  0.000000E+00  1.024000E+03  1.503272E+02  3.455865E-17  3.232937E-01    1 
 5.000000E-01  5.000000E-01  1.415000E+02  3.606834E+01  1.547331E+07  1.548046E+07  9.854847E-01  1.451528E-02  0.000000E+00  1.024000E+03  1.502604E+02  3.456448E-17  3.235523E-01    1 
 5.000000E-01  5.000000E-01  1.425000E+02  3.602774E+01  1.546327E+07  1.547044E+07  9.854224E-01  1.457759E-02  0.000000E+00  1.024000E+03  1.501936E+02  3.457031E-17  3.238110E-01    1 
 5.000000E-01  5.000000E-01  1.435000E+02  3.598715E+01  1.545322E+07  1.546042E+07  9.853603E-01  1.463970E-02  0.000000E+00  1.024000E+03  1.501267E+02  3.457615E-17  3.240699E-01    1 
 5.000000E-01  5.000000E-01  1.445000E+02  3.594656E+01  1.544318E+07  1.545040E+07  9.852984E-01  1.470162E-02  0.000000E+00  1.024000E+03  1.500598E+02  3.458199E-17  3.243291E-01    1 
 5.000000E-01  5.000000E-01  1.455000E+02  3.590597E+01  1.543313E+07  1.544038E+07  9.852366E-01  1.476337E-02  0.000000E+00  1.024000E+03  1.499929E+02  3.458784E-17  3.245885E-01    1 
 5.000000E-01  5.000000E-01  1.465000E+02  3.586539E+01  1.542309E+07  1.543035E+07  9.851750E-01  1.482496E-02  0.000000E+00  1.024000E+03  1.499259E+02  3.459370E-17  3.248480E-01    1 
 5.000000E-01  5.000000E-01  1.475000E+02  3.582481E+01  1.541304E+07  1.542033E+07  9.851136E-01  1.488641E-02  0.000000E+00  1.024000E+03  1.498589E+02  3.459956E-17  3.251078E-01    1 
 5.000000E-01  5.000000E-01  1.485000E+02  3.578423E+01  1.540300E+07  1.541031E+07  9.850523E-01  1.494774E-02  0.000000E+00  1.024000E+03  1.497919E+02  3.460542E-17  3.253678E-01    1 
 5.000000E-01  5.000000E-01  1.495000E+02  3.574365E+01  1.539295E+07  1.540028E+07  9.849911E-01  1.500895E-02  0.000000E+00  1.024000E+03  1.497249E+02  3.461129E-17  3.256280E-01    1 
 5.000000E-01  5.000000E-01  1.505000E+02  3.570308E+01  1.538290E+07  1.539026E+07  9.849299E-01  1.507006E-02  0.000000E+00  1.024000E+03  1.496578E+02  3.461717E-17  3.258884E-01    1 
 5.000000E-01  5.000000E-01  1.515000E+02  3.566251E+01  1.537286E+07  1.538024E+07  9.848689E-01  1.513108E-02  0.000000E+00  1.024000E+03  1.495907E+02  3.462306E-17  3.261490E-01    1 
 5.000000E-01  5.000000E-01  1.525000E+02  3.562195E+01  1.536281E+07  1.537021E+07  9.848080E-01  1.519203E-02  0.000000E+00  1.024000E+03  1.495236E+02  3.462894E-17  3.264098E-01    1 
 5.000000E-01  5.000000E-01  1.535000E+02  3.558139E+01  1.535277E+07  1.536019E+07  9.847471E-01  1.525291E-02  0.000000E+00  1.024000E+03  1.494564E+02  3.463484E-17  3.266708E-01    1 
 5.000000E-01  5.000000E-01  1.545000E+02  3.554083E+01  1.534272E+07  1.535016E+07  9.846863E-01  1.531375E-02  0.000000E+00  1.024000E+03  1.493892E+02  3.464074E-17  3.269320E-01    1 
 5.000000E-01  5.000000E-01  1.555000E+02  3.550027E+01  1.533267E+07  1.534014E+07  9.846255E-01  1.537454E-02  0.000000E+00  1.024000E+03  1.493220E+02  3.464665E-17  3.271935E-01    1 
 5.000000E-01  5.000000E-01  1.565000E+02  3.545972E+01  1.532263E+07  1.533012E+07  9.845647E-01  1.543530E-02  0.000000E+00  1.024000E+03  1.492547E+02  3.465256E-17  3.274551E-01    1 