TITLE = "  8.81000E+04 [y]"
VARIABLES="X [m]","Y [m]","Z [m]","Temperature [C]","Liquid Pressure [Pa]","Gas Pressure [Pa]","Liquid Saturation","Gas Saturation","Hydrate Saturation","Liquid Density [kg/m^3]","Gas Density [kg/m^3]","Permeability X [m^2]","Porosity","Material ID"
ZONE T="8.81000E+04", STRANDID=1, SOLUTIONTIME=8.81000E+04, I=1, J=1, K=1000, DATAPACKING=POINT
 5.000000E-01  5.000000E-01  5.000000E-01  4.172438E+01  1.686390E+07  1.686751E+07  9.935183E-01  6.481677E-03  0.000000E+00  1.024000E+03  1.592403E+02  3.379583E-17  2.890648E-01    1 
 5.000000E-01  5.000000E-01  1.500000E+00  4.168334E+01  1.685386E+07  1.685751E+07  9.934479E-01  6.552073E-03  0.000000E+00  1.024000E+03  1.591774E+02  3.380093E-17  2.892959E-01    1 
 5.000000E-01  5.000000E-01  2.500000E+00  4.164230E+01  1.684383E+07  1.684750E+07  9.933857E-01  6.614272E-03  0.000000E+00  1.024000E+03  1.591145E+02  3.380603E-17  2.895273E-01    1 
 5.000000E-01  5.000000E-01  3.500000E+00  4.160126E+01  1.683379E+07  1.683750E+07  9.933229E-01  6.677150E-03  0.000000E+00  1.024000E+03  1.590515E+02  3.381113E-17  2.897588E-01    1 
 5.000000E-01  5.000000E-01  4.500000E+00  4.156023E+01  1.682375E+07  1.682750E+07  9.932592E-01  6.740834E-03  0.000000E+00  1.024000E+03  1.589886E+02  3.381624E-17  2.899905E-01    1 
 5.000000E-01  5.000000E-01  5.500000E+00  4.151920E+01  1.681372E+07  1.681749E+07  9.931946E-01  6.805358E-03  0.000000E+00  1.024000E+03  1.589256E+02  3.382135E-17  2.902224E-01    1 
 5.000000E-01  5.000000E-01  6.500000E+00  4.147817E+01  1.680368E+07  1.680749E+07  9.931295E-01  6.870533E-03  0.000000E+00  1.024000E+03  1.588625E+02  3.382647E-17  2.904545E-01    1 
 5.000000E-01  5.000000E-01  7.500000E+00  4.143715E+01  1.679365E+07  1.679749E+07  9.930635E-01  6.936455E-03  0.000000E+00  1.024000E+03  1.587995E+02  3.383160E-17  2.906868E-01    1 
 5.000000E-01  5.000000E-01  8.500000E+00  4.139612E+01  1.678361E+07  1.678749E+07  9.929969E-01  7.003123E-03  0.000000E+00  1.024000E+03  1.587364E+02  3.383673E-17  2.909192E-01    1 
 5.000000E-01  5.000000E-01  9.500000E+00  4.135510E+01  1.677358E+07  1.677748E+07  9.929295E-01  7.070531E-03  0.000000E+00  1.024000E+03  1.586733E+02  3.384186E-17  2.911519E-01    1 
 5.000000E-01  5.000000E-01  1.050000E+01  4.131409E+01  1.676354E+07  1.676748E+07  9.928613E-01  7.138670E-03  0.000000E+00  1.024000E+03  1.586102E+02  3.384700E-17  2.913847E-01    1 
 5.000000E-01  5.000000E-01  1.150000E+01  4.127307E+01  1.675351E+07  1.675748E+07  9.927925E-01  7.207525E-03  0.000000E+00  1.024000E+03  1.585471E+02  3.385214E-17  2.916177E-01    1 
 5.000000E-01  5.000000E-01  1.250000E+01  4.123206E+01  1.674347E+07  1.674748E+07  9.927229E-01  7.277077E-03  0.000000E+00  1.024000E+03  1.584839E+02  3.385729E-17  2.918509E-01    1 
 5.000000E-01  5.000000E-01  1.350000E+01  4.119105E+01  1.673343E+07  1.673748E+07  9.926527E-01  7.347304E-03  0.000000E+00  1.024000E+03  1.584207E+02  3.386244E-17  2.920843E-01    1 
 5.000000E-01  5.000000E-01  1.450000E+01  4.115005E+01  1.672340E+07  1.672748E+07  9.925818E-01  7.418177E-03  0.000000E+00  1.024000E+03  1.583575E+02  3.386760E-17  2.923179E-01    1 
 5.000000E-01  5.000000E-01  1.550000E+01  4.110904E+01  1.671336E+07  1.671747E+07  9.925103E-01  7.489663E-03  0.000000E+00  1.024000E+03  1.582943E+02  3.387276E-17  2.925516E-01    1 
 5.000000E-01  5.000000E-01  1.650000E+01  4.106804E+01  1.670333E+07  1.670747E+07  9.924383E-01  7.561727E-03  0.000000E+00  1.024000E+03  1.582310E+02  3.387793E-17  2.927856E-01    1 
 5.000000E-01  5.000000E-01  1.750000E+01  4.102705E+01  1.669329E+07  1.669747E+07  9.923657E-01  7.634326E-03  0.000000E+00  1.024000E+03  1.581677E+02  3.388310E-17  2.930197E-01    1 
 5.000000E-01  5.000000E-01  1.850000E+01  4.098605E+01  1.668325E+07  1.668747E+07  9.922926E-01  7.707415E-03  0.000000E+00  1.024000E+03  1.581044E+02  3.388828E-17  2.932541E-01    1 
 5.000000E-01  5.000000E-01  1.950000E+01  4.094506E+01  1.667322E+07  1.667747E+07  9.922191E-01  7.780945E-03  0.000000E+00  1.024000E+03  1.580410E+02  3.389346E-17  2.934886E-01    1 
 5.000000E-01  5.000000E-01  2.050000E+01  4.090407E+01  1.666318E+07  1.666747E+07  9.921451E-01  7.854861E-03  0.000000E+00  1.024000E+03  1.579777E+02  3.389865E-17  2.937233E-01    1 
 5.000000E-01  5.000000E-01  2.150000E+01  4.086308E+01  1.665314E+07  1.665747E+07  9.920709E-01  7.929106E-03  0.000000E+00  1.024000E+03  1.579143E+02  3.390384E-17  2.939581E-01    1 
 5.000000E-01  5.000000E-01  2.250000E+01  4.082210E+01  1.664311E+07  1.664747E+07  9.919964E-01  8.003620E-03  0.000000E+00  1.024000E+03  1.578508E+02  3.390904E-17  2.941932E-01    1 
 5.000000E-01  5.000000E-01  2.350000E+01  4.078112E+01  1.663307E+07  1.663747E+07  9.919217E-01  8.078337E-03  0.000000E+00  1.024000E+03  1.577874E+02  3.391424E-17  2.944285E-01    1 
 5.000000E-01  5.000000E-01  2.450000E+01  4.074014E+01  1.662304E+07  1.662747E+07  9.918468E-01  8.153191E-03  0.000000E+00  1.024000E+03  1.577239E+02  3.391945E-17  2.946639E-01    1 
 5.000000E-01  5.000000E-01  2.550000E+01  4.069917E+01  1.661300E+07  1.661747E+07  9.917719E-01  8.228112E-03  0.000000E+00  1.024000E+03  1.576604E+02  3.392466E-17  2.948996E-01    1 
 5.000000E-01  5.000000E-01  2.650000E+01  4.065820E+01  1.660296E+07  1.660747E+07  9.916970E-01  8.303029E-03  0.000000E+00  1.024000E+03  1.575969E+02  3.392988E-17  2.951354E-01    1 
 5.000000E-01  5.000000E-01  2.750000E+01  4.061723E+01  1.659293E+07  1.659747E+07  9.916221E-01  8.377868E-03  0.000000E+00  1.024000E+03  1.575333E+02  3.393510E-17  2.953714E-01    1 
 5.000000E-01  5.000000E-01  2.850000E+01  4.057626E+01  1.658289E+07  1.658746E+07  9.915474E-01  8.452556E-03  0.000000E+00  1.024000E+03  1.574697E+02  3.394033E-17  2.956076E-01    1 
 5.000000E-01  5.000000E-01  2.950000E+01  4.053530E+01  1.657285E+07  1.657746E+07  9.914730E-01  8.527019E-03  0.000000E+00  1.024000E+03  1.574061E+02  3.394556E-17  2.958440E-01    1 
 5.000000E-01  5.000000E-01  3.050000E+01  4.049434E+01  1.656282E+07  1.656746E+07  9.913988E-01  8.601184E-03  0.000000E+00  1.024000E+03  1.573425E+02  3.395080E-17  2.960806E-01    1 
 5.000000E-01  5.000000E-01  3.150000E+01  4.045338E+01  1.655278E+07  1.655746E+07  9.913250E-01  8.674982E-03  0.000000E+00  1.024000E+03  1.572788E+02  3.395604E-17  2.963173E-01    1 
 5.000000E-01  5.000000E-01  3.250000E+01  4.041243E+01  1.654274E+07  1.654746E+07  9.912517E-01  8.748344E-03  0.000000E+00  1.024000E+03  1.572151E+02  3.396129E-17  2.965543E-01    1 
 5.000000E-01  5.000000E-01  3.350000E+01  4.037147E+01  1.653270E+07  1.653745E+07  9.911788E-01  8.821207E-03  0.000000E+00  1.024000E+03  1.571514E+02  3.396654E-17  2.967915E-01    1 
 5.000000E-01  5.000000E-01  3.450000E+01  4.033053E+01  1.652267E+07  1.652745E+07  9.911065E-01  8.893513E-03  0.000000E+00  1.024000E+03  1.570876E+02  3.397180E-17  2.970288E-01    1 
 5.000000E-01  5.000000E-01  3.550000E+01  4.028958E+01  1.651263E+07  1.651745E+07  9.910348E-01  8.965208E-03  0.000000E+00  1.024000E+03  1.570238E+02  3.397706E-17  2.972663E-01    1 
 5.000000E-01  5.000000E-01  3.650000E+01  4.024864E+01  1.650259E+07  1.650744E+07  9.909638E-01  9.036248E-03  0.000000E+00  1.024000E+03  1.569600E+02  3.398233E-17  2.975040E-01    1 
 5.000000E-01  5.000000E-01  3.750000E+01  4.020770E+01  1.649256E+07  1.649744E+07  9.908934E-01  9.106593E-03  0.000000E+00  1.024000E+03  1.568961E+02  3.398760E-17  2.977419E-01    1 
 5.000000E-01  5.000000E-01  3.850000E+01  4.016676E+01  1.648252E+07  1.648743E+07  9.908238E-01  9.176213E-03  0.000000E+00  1.024000E+03  1.568322E+02  3.399288E-17  2.979800E-01    1 
 5.000000E-01  5.000000E-01  3.950000E+01  4.012582E+01  1.647248E+07  1.647743E+07  9.907549E-01  9.245086E-03  0.000000E+00  1.024000E+03  1.567683E+02  3.399816E-17  2.982183E-01    1 
 5.000000E-01  5.000000E-01  4.050000E+01  4.008489E+01  1.646244E+07  1.646742E+07  9.906868E-01  9.313197E-03  0.000000E+00  1.024000E+03  1.567044E+02  3.400345E-17  2.984568E-01    1 
 5.000000E-01  5.000000E-01  4.150000E+01  4.004396E+01  1.645241E+07  1.645741E+07  9.906195E-01  9.380541E-03  0.000000E+00  1.024000E+03  1.566404E+02  3.400874E-17  2.986955E-01    1 
 5.000000E-01  5.000000E-01  4.250000E+01  4.000304E+01  1.644237E+07  1.644741E+07  9.905529E-01  9.447119E-03  0.000000E+00  1.024000E+03  1.565764E+02  3.401404E-17  2.989343E-01    1 
 5.000000E-01  5.000000E-01  4.350000E+01  3.996211E+01  1.643233E+07  1.643740E+07  9.904871E-01  9.512941E-03  0.000000E+00  1.024000E+03  1.565123E+02  3.401934E-17  2.991734E-01    1 
 5.000000E-01  5.000000E-01  4.450000E+01  3.992119E+01  1.642229E+07  1.642739E+07  9.904220E-01  9.578023E-03  0.000000E+00  1.024000E+03  1.564483E+02  3.402465E-17  2.994126E-01    1 
 5.000000E-01  5.000000E-01  4.550000E+01  3.988028E+01  1.641225E+07  1.641738E+07  9.903576E-01  9.642387E-03  0.000000E+00  1.024000E+03  1.563842E+02  3.402996E-17  2.996521E-01    1 
 5.000000E-01  5.000000E-01  4.650000E+01  3.983936E+01  1.640222E+07  1.640737E+07  9.902939E-01  9.706061E-03  0.000000E+00  1.024000E+03  1.563200E+02  3.403528E-17  2.998917E-01    1 
 5.000000E-01  5.000000E-01  4.750000E+01  3.979845E+01  1.639218E+07  1.639736E+07  9.902309E-01  9.769077E-03  0.000000E+00  1.024000E+03  1.562559E+02  3.404060E-17  3.001315E-01    1 
 5.000000E-01  5.000000E-01  4.850000E+01  3.975754E+01  1.638214E+07  1.638735E+07  9.901685E-01  9.831469E-03  0.000000E+00  1.024000E+03  1.561917E+02  3.404593E-17  3.003715E-01    1 
 5.000000E-01  5.000000E-01  4.950000E+01  3.971664E+01  1.637210E+07  1.637734E+07  9.901067E-01  9.893275E-03  0.000000E+00  1.024000E+03  1.561275E+02  3.405126E-17  3.006117E-01    1 
 5.000000E-01  5.000000E-01  5.050000E+01  3.967573E+01  1.636206E+07  1.636733E+07  9.900455E-01  9.954535E-03  0.000000E+00  1.024000E+03  1.560632E+02  3.405660E-17  3.008521E-01    1 
 5.000000E-01  5.000000E-01  5.150000E+01  3.963483E+01  1.635203E+07  1.635732E+07  9.899847E-01  1.001529E-02  0.000000E+00  1.024000E+03  1.559989E+02  3.406195E-17  3.010927E-01    1 
 5.000000E-01  5.000000E-01  5.250000E+01  3.959394E+01  1.634199E+07  1.634731E+07  9.899244E-01  1.007558E-02  0.000000E+00  1.024000E+03  1.559346E+02  3.406729E-17  3.013335E-01    1 
 5.000000E-01  5.000000E-01  5.350000E+01  3.955304E+01  1.633195E+07  1.633730E+07  9.898646E-01  1.013544E-02  0.000000E+00  1.024000E+03  1.558703E+02  3.407265E-17  3.015744E-01    1 
 5.000000E-01  5.000000E-01  5.450000E+01  3.951215E+01  1.632191E+07  1.632729E+07  9.898051E-01  1.019493E-02  0.000000E+00  1.024000E+03  1.558059E+02  3.407801E-17  3.018156E-01    1 
 5.000000E-01  5.000000E-01  5.550000E+01  3.947127E+01  1.631187E+07  1.631728E+07  9.897459E-01  1.025406E-02  0.000000E+00  1.024000E+03  1.557415E+02  3.408337E-17  3.020570E-01    1 
 5.000000E-01  5.000000E-01  5.650000E+01  3.943038E+01  1.630184E+07  1.630726E+07  9.896871E-01  1.031290E-02  0.000000E+00  1.024000E+03  1.556771E+02  3.408874E-17  3.022985E-01    1 
 5.000000E-01  5.000000E-01  5.750000E+01  3.938950E+01  1.629180E+07  1.629725E+07  9.896285E-01  1.037146E-02  0.000000E+00  1.024000E+03  1.556126E+02  3.409411E-17  3.025403E-01    1 
 5.000000E-01  5.000000E-01  5.850000E+01  3.934862E+01  1.628176E+07  1.628724E+07  9.895702E-01  1.042979E-02  0.000000E+00  1.024000E+03  1.555482E+02  3.409949E-17  3.027822E-01    1 
 5.000000E-01  5.000000E-01  5.950000E+01  3.930775E+01  1.627172E+07  1.627723E+07  9.895121E-01  1.048793E-02  0.000000E+00  1.024000E+03  1.554836E+02  3.410488E-17  3.030243E-01    1 
 5.000000E-01  5.000000E-01  6.050000E+01  3.926687E+01  1.626168E+07  1.626721E+07  9.894541E-01  1.054590E-02  0.000000E+00  1.024000E+03  1.554191E+02  3.411027E-17  3.032666E-01    1 
 5.000000E-01  5.000000E-01  6.150000E+01  3.922600E+01  1.625164E+07  1.625720E+07  9.893963E-01  1.060375E-02  0.000000E+00  1.024000E+03  1.553545E+02  3.411566E-17  3.035092E-01    1 
 5.000000E-01  5.000000E-01  6.250000E+01  3.918514E+01  1.624160E+07  1.624719E+07  9.893385E-01  1.066150E-02  0.000000E+00  1.024000E+03  1.552899E+02  3.412106E-17  3.037519E-01    1 
 5.000000E-01  5.000000E-01  6.350000E+01  3.914427E+01  1.623156E+07  1.623717E+07  9.892808E-01  1.071918E-02  0.000000E+00  1.024000E+03  1.552253E+02  3.412647E-17  3.039948E-01    1 
 5.000000E-01  5.000000E-01  6.450000E+01  3.910341E+01  1.622153E+07  1.622716E+07  9.892232E-01  1.077684E-02  0.000000E+00  1.024000E+03  1.551606E+02  3.413188E-17  3.042379E-01    1 
 5.000000E-01  5.000000E-01  6.550000E+01  3.906255E+01  1.621149E+07  1.621714E+07  9.891655E-01  1.083449E-02  0.000000E+00  1.024000E+03  1.550960E+02  3.413729E-17  3.044812E-01    1 
 5.000000E-01  5.000000E-01  6.650000E+01  3.902170E+01  1.620145E+07  1.620713E+07  9.891078E-01  1.089217E-02  0.000000E+00  1.024000E+03  1.550312E+02  3.414271E-17  3.047247E-01    1 
 5.000000E-01  5.000000E-01  6.750000E+01  3.898085E+01  1.619141E+07  1.619712E+07  9.890501E-01  1.094992E-02  0.000000E+00  1.024000E+03  1.549665E+02  3.414814E-17  3.049683E-01    1 
 5.000000E-01  5.000000E-01  6.850000E+01  3.894000E+01  1.618137E+07  1.618710E+07  9.889923E-01  1.100775E-02  0.000000E+00  1.024000E+03  1.549017E+02  3.415357E-17  3.052122E-01    1 
 5.000000E-01  5.000000E-01  6.950000E+01  3.889915E+01  1.617133E+07  1.617709E+07  9.889343E-01  1.106570E-02  0.000000E+00  1.024000E+03  1.548369E+02  3.415901E-17  3.054563E-01    1 
 5.000000E-01  5.000000E-01  7.050000E+01  3.885831E+01  1.616129E+07  1.616707E+07  9.888762E-01  1.112380E-02  0.000000E+00  1.024000E+03  1.547721E+02  3.416445E-17  3.057006E-01    1 
 5.000000E-01  5.000000E-01  7.150000E+01  3.881747E+01  1.615125E+07  1.615706E+07  9.888179E-01  1.118208E-02  0.000000E+00  1.024000E+03  1.547073E+02  3.416989E-17  3.059450E-01    1 
 5.000000E-01  5.000000E-01  7.250000E+01  3.877663E+01  1.614121E+07  1.614705E+07  9.887594E-01  1.124057E-02  0.000000E+00  1.024000E+03  1.546424E+02  3.417535E-17  3.061897E-01    1 
 5.000000E-01  5.000000E-01  7.350000E+01  3.873580E+01  1.613117E+07  1.613703E+07  9.887007E-01  1.129930E-02  0.000000E+00  1.024000E+03  1.545775E+02  3.418080E-17  3.064345E-01    1 
 5.000000E-01  5.000000E-01  7.450000E+01  3.869497E+01  1.612113E+07  1.612702E+07  9.886417E-01  1.135829E-02  0.000000E+00  1.024000E+03  1.545126E+02  3.418627E-17  3.066796E-01    1 
 5.000000E-01  5.000000E-01  7.550000E+01  3.865414E+01  1.611109E+07  1.611700E+07  9.885824E-01  1.141757E-02  0.000000E+00  1.024000E+03  1.544476E+02  3.419173E-17  3.069248E-01    1 
 5.000000E-01  5.000000E-01  7.650000E+01  3.861332E+01  1.610105E+07  1.610699E+07  9.885228E-01  1.147718E-02  0.000000E+00  1.024000E+03  1.543826E+02  3.419721E-17  3.071703E-01    1 
 5.000000E-01  5.000000E-01  7.750000E+01  3.857250E+01  1.609101E+07  1.609697E+07  9.884629E-01  1.153713E-02  0.000000E+00  1.024000E+03  1.543176E+02  3.420268E-17  3.074159E-01    1 
 5.000000E-01  5.000000E-01  7.850000E+01  3.853168E+01  1.608097E+07  1.608696E+07  9.884026E-01  1.159745E-02  0.000000E+00  1.024000E+03  1.542525E+02  3.420817E-17  3.076617E-01    1 
 5.000000E-01  5.000000E-01  7.950000E+01  3.849086E+01  1.607093E+07  1.607695E+07  9.883418E-01  1.165816E-02  0.000000E+00  1.024000E+03  1.541875E+02  3.421366E-17  3.079078E-01    1 
 5.000000E-01  5.000000E-01  8.050000E+01  3.845005E+01  1.606089E+07  1.606693E+07  9.882807E-01  1.171930E-02  0.000000E+00  1.024000E+03  1.541224E+02  3.421915E-17  3.081540E-01    1 
 5.000000E-01  5.000000E-01  8.150000E+01  3.840924E+01  1.605086E+07  1.605692E+07  9.882191E-01  1.178088E-02  0.000000E+00  1.024000E+03  1.540573E+02  3.422465E-17  3.084004E-01    1 
 5.000000E-01  5.000000E-01  8.250000E+01  3.836843E+01  1.604082E+07  1.604690E+07  9.881571E-01  1.184292E-02  0.000000E+00  1.024000E+03  1.539921E+02  3.423015E-17  3.086470E-01    1 
 5.000000E-01  5.000000E-01  8.350000E+01  3.832763E+01  1.603077E+07  1.603689E+07  9.880946E-01  1.190544E-02  0.000000E+00  1.024000E+03  1.539269E+02  3.423566E-17  3.088939E-01    1 
 5.000000E-01  5.000000E-01  8.450000E+01  3.828683E+01  1.602073E+07  1.602688E+07  9.880315E-01  1.196846E-02  0.000000E+00  1.024000E+03  1.538617E+02  3.424118E-17  3.091409E-01    1 
 5.000000E-01  5.000000E-01  8.550000E+01  3.824603E+01  1.601069E+07  1.601686E+07  9.879680E-01  1.203198E-02  0.000000E+00  1.024000E+03  1.537965E+02  3.424670E-17  3.093881E-01    1 
 5.000000E-01  5.000000E-01  8.650000E+01  3.820524E+01  1.600065E+07  1.600685E+07  9.879040E-01  1.209603E-02  0.000000E+00  1.024000E+03  1.537312E+02  3.425222E-17  3.096355E-01    1 
 5.000000E-01  5.000000E-01  8.750000E+01  3.816445E+01  1.599061E+07  1.599683E+07  9.878394E-01  1.216060E-02  0.000000E+00  1.024000E+03  1.536660E+02  3.425775E-17  3.098831E-01    1 
 5.000000E-01  5.000000E-01  8.850000E+01  3.812366E+01  1.598057E+07  1.598682E+07  9.877743E-01  1.222571E-02  0.000000E+00  1.024000E+03  1.536006E+02  3.426329E-17  3.101309E-01    1 
 5.000000E-01  5.000000E-01  8.950000E+01  3.808287E+01  1.597053E+07  1.597681E+07  9.877086E-01  1.229135E-02  0.000000E+00  1.024000E+03  1.535353E+02  3.426883E-17  3.103789E-01    1 
 5.000000E-01  5.000000E-01  9.050000E+01  3.804209E+01  1.596049E+07  1.596679E+07  9.876425E-01  1.235752E-02  0.000000E+00  1.024000E+03  1.534699E+02  3.427438E-17  3.106271E-01    1 
 5.000000E-01  5.000000E-01  9.150000E+01  3.800131E+01  1.595045E+07  1.595678E+07  9.875758E-01  1.242421E-02  0.000000E+00  1.024000E+03  1.534045E+02  3.427993E-17  3.108755E-01    1 
 5.000000E-01  5.000000E-01  9.250000E+01  3.796053E+01  1.594041E+07  1.594677E+07  9.875086E-01  1.249141E-02  0.000000E+00  1.024000E+03  1.533391E+02  3.428549E-17  3.111241E-01    1 
 5.000000E-01  5.000000E-01  9.350000E+01  3.791976E+01  1.593037E+07  1.593675E+07  9.874409E-01  1.255911E-02  0.000000E+00  1.024000E+03  1.532737E+02  3.429105E-17  3.113729E-01    1 
 5.000000E-01  5.000000E-01  9.450000E+01  3.787899E+01  1.592033E+07  1.592674E+07  9.873727E-01  1.262728E-02  0.000000E+00  1.024000E+03  1.532082E+02  3.429662E-17  3.116219E-01    1 
 5.000000E-01  5.000000E-01  9.550000E+01  3.783822E+01  1.591029E+07  1.591673E+07  9.873041E-01  1.269590E-02  0.000000E+00  1.024000E+03  1.531427E+02  3.430219E-17  3.118711E-01    1 
 5.000000E-01  5.000000E-01  9.650000E+01  3.779746E+01  1.590025E+07  1.590672E+07  9.872351E-01  1.276493E-02  0.000000E+00  1.024000E+03  1.530772E+02  3.430777E-17  3.121205E-01    1 
 5.000000E-01  5.000000E-01  9.750000E+01  3.775670E+01  1.589021E+07  1.589670E+07  9.871656E-01  1.283436E-02  0.000000E+00  1.024000E+03  1.530116E+02  3.431336E-17  3.123701E-01    1 
 5.000000E-01  5.000000E-01  9.850000E+01  3.771594E+01  1.588017E+07  1.588669E+07  9.870959E-01  1.290413E-02  0.000000E+00  1.024000E+03  1.529460E+02  3.431895E-17  3.126199E-01    1 
 5.000000E-01  5.000000E-01  9.950000E+01  3.767519E+01  1.587012E+07  1.587668E+07  9.870258E-01  1.297422E-02  0.000000E+00  1.024000E+03  1.528804E+02  3.432454E-17  3.128699E-01    1 
 5.000000E-01  5.000000E-01  1.005000E+02  3.763443E+01  1.586008E+07  1.586666E+07  9.869554E-01  1.304457E-02  0.000000E+00  1.024000E+03  1.528148E+02  3.433014E-17  3.131201E-01    1 
 5.000000E-01  5.000000E-01  1.015000E+02  3.759369E+01  1.585004E+07  1.585665E+07  9.868849E-01  1.311514E-02  0.000000E+00  1.024000E+03  1.527491E+02  3.433575E-17  3.133705E-01    1 
 5.000000E-01  5.000000E-01  1.025000E+02  3.755294E+01  1.584000E+07  1.584664E+07  9.868141E-01  1.318589E-02  0.000000E+00  1.024000E+03  1.526834E+02  3.434136E-17  3.136211E-01    1 
 5.000000E-01  5.000000E-01  1.035000E+02  3.751220E+01  1.582996E+07  1.583662E+07  9.867432E-01  1.325676E-02  0.000000E+00  1.024000E+03  1.526177E+02  3.434698E-17  3.138719E-01    1 
 5.000000E-01  5.000000E-01  1.045000E+02  3.747146E+01  1.581992E+07  1.582661E+07  9.866723E-01  1.332771E-02  0.000000E+00  1.024000E+03  1.525519E+02  3.435260E-17  3.141229E-01    1 
 5.000000E-01  5.000000E-01  1.055000E+02  3.743072E+01  1.580988E+07  1.581660E+07  9.866013E-01  1.339868E-02  0.000000E+00  1.024000E+03  1.524862E+02  3.435823E-17  3.143741E-01    1 
 5.000000E-01  5.000000E-01  1.065000E+02  3.738999E+01  1.579983E+07  1.580658E+07  9.865304E-01  1.346962E-02  0.000000E+00  1.024000E+03  1.524204E+02  3.436386E-17  3.146255E-01    1 
 5.000000E-01  5.000000E-01  1.075000E+02  3.734926E+01  1.578979E+07  1.579657E+07  9.864595E-01  1.354050E-02  0.000000E+00  1.024000E+03  1.523545E+02  3.436950E-17  3.148771E-01    1 
 5.000000E-01  5.000000E-01  1.085000E+02  3.730853E+01  1.577975E+07  1.578655E+07  9.863887E-01  1.361126E-02  0.000000E+00  1.024000E+03  1.522886E+02  3.437514E-17  3.151289E-01    1 
 5.000000E-01  5.000000E-01  1.095000E+02  3.726780E+01  1.576971E+07  1.577654E+07  9.863181E-01  1.368186E-02  0.000000E+00  1.024000E+03  1.522227E+02  3.438079E-17  3.153809E-01    1 
 5.000000E-01  5.000000E-01  1.105000E+02  3.722708E+01  1.575967E+07  1.576652E+07  9.862477E-01  1.375226E-02  0.000000E+00  1.024000E+03  1.521568E+02  3.438645E-17  3.156331E-01    1 
 5.000000E-01  5.000000E-01  1.115000E+02  3.718636E+01  1.574962E+07  1.575651E+07  9.861776E-01  1.382243E-02  0.000000E+00  1.024000E+03  1.520909E+02  3.439211E-17  3.158855E-01    1 
 5.000000E-01  5.000000E-01  1.125000E+02  3.714565E+01  1.573958E+07  1.574649E+07  9.861077E-01  1.389232E-02  0.000000E+00  1.024000E+03  1.520249E+02  3.439777E-17  3.161381E-01    1 
 5.000000E-01  5.000000E-01  1.135000E+02  3.710493E+01  1.572954E+07  1.573648E+07  9.860381E-01  1.396192E-02  0.000000E+00  1.024000E+03  1.519588E+02  3.440344E-17  3.163909E-01    1 
 5.000000E-01  5.000000E-01  1.145000E+02  3.706423E+01  1.571950E+07  1.572646E+07  9.859688E-01  1.403119E-02  0.000000E+00  1.024000E+03  1.518928E+02  3.440912E-17  3.166439E-01    1 
 5.000000E-01  5.000000E-01  1.155000E+02  3.702352E+01  1.570946E+07  1.571645E+07  9.858999E-01  1.410013E-02  0.000000E+00  1.024000E+03  1.518267E+02  3.441480E-17  3.168971E-01    1 
 5.000000E-01  5.000000E-01  1.165000E+02  3.698282E+01  1.569941E+07  1.570643E+07  9.858313E-01  1.416870E-02  0.000000E+00  1.024000E+03  1.517606E+02  3.442049E-17  3.171506E-01    1 
 5.000000E-01  5.000000E-01  1.175000E+02  3.694212E+01  1.568937E+07  1.569642E+07  9.857631E-01  1.423691E-02  0.000000E+00  1.024000E+03  1.516945E+02  3.442618E-17  3.174042E-01    1 
 5.000000E-01  5.000000E-01  1.185000E+02  3.690142E+01  1.567933E+07  1.568640E+07  9.856953E-01  1.430473E-02  0.000000E+00  1.024000E+03  1.516283E+02  3.443188E-17  3.176580E-01    1 
 5.000000E-01  5.000000E-01  1.195000E+02  3.686073E+01  1.566928E+07  1.567638E+07  9.856278E-01  1.437218E-02  0.000000E+00  1.024000E+03  1.515621E+02  3.443758E-17  3.179120E-01    1 
 5.000000E-01  5.000000E-01  1.205000E+02  3.682003E+01  1.565924E+07  1.566636E+07  9.855608E-01  1.443924E-02  0.000000E+00  1.024000E+03  1.514958E+02  3.444329E-17  3.181663E-01    1 
 5.000000E-01  5.000000E-01  1.215000E+02  3.677935E+01  1.564920E+07  1.565635E+07  9.854941E-01  1.450592E-02  0.000000E+00  1.024000E+03  1.514296E+02  3.444901E-17  3.184207E-01    1 
 5.000000E-01  5.000000E-01  1.225000E+02  3.673866E+01  1.563916E+07  1.564633E+07  9.854278E-01  1.457223E-02  0.000000E+00  1.024000E+03  1.513633E+02  3.445473E-17  3.186753E-01    1 
 5.000000E-01  5.000000E-01  1.235000E+02  3.669798E+01  1.562911E+07  1.563631E+07  9.853618E-01  1.463817E-02  0.000000E+00  1.024000E+03  1.512970E+02  3.446046E-17  3.189302E-01    1 
 5.000000E-01  5.000000E-01  1.245000E+02  3.665730E+01  1.561907E+07  1.562629E+07  9.852962E-01  1.470376E-02  0.000000E+00  1.024000E+03  1.512306E+02  3.446619E-17  3.191852E-01    1 
 5.000000E-01  5.000000E-01  1.255000E+02  3.661663E+01  1.560903E+07  1.561627E+07  9.852310E-01  1.476901E-02  0.000000E+00  1.024000E+03  1.511642E+02  3.447192E-17  3.194405E-01    1 
 5.000000E-01  5.000000E-01  1.265000E+02  3.657595E+01  1.559898E+07  1.560625E+07  9.851661E-01  1.483392E-02  0.000000E+00  1.024000E+03  1.510978E+02  3.447767E-17  3.196959E-01    1 
 5.000000E-01  5.000000E-01  1.275000E+02  3.653529E+01  1.558894E+07  1.559623E+07  9.851015E-01  1.489853E-02  0.000000E+00  1.024000E+03  1.510314E+02  3.448342E-17  3.199516E-01    1 
 5.000000E-01  5.000000E-01  1.285000E+02  3.649462E+01  1.557890E+07  1.558621E+07  9.850372E-01  1.496283E-02  0.000000E+00  1.024000E+03  1.509649E+02  3.448917E-17  3.202074E-01    1 
 5.000000E-01  5.000000E-01  1.295000E+02  3.645396E+01  1.556885E+07  1.557619E+07  9.849732E-01  1.502685E-02  0.000000E+00  1.024000E+03  1.508984E+02  3.449493E-17  3.204635E-01    1 
 5.000000E-01  5.000000E-01  1.305000E+02  3.641330E+01  1.555881E+07  1.556617E+07  9.849094E-01  1.509060E-02  0.000000E+00  1.024000E+03  1.508318E+02  3.450069E-17  3.207197E-01    1 
 5.000000E-01  5.000000E-01  1.315000E+02  3.637264E+01  1.554877E+07  1.555615E+07  9.848459E-01  1.515410E-02  0.000000E+00  1.024000E+03  1.507653E+02  3.450646E-17  3.209762E-01    1 
 5.000000E-01  5.000000E-01  1.325000E+02  3.633199E+01  1.553872E+07  1.554613E+07  9.847826E-01  1.521737E-02  0.000000E+00  1.024000E+03  1.506987E+02  3.451224E-17  3.212329E-01    1 
 5.000000E-01  5.000000E-01  1.335000E+02  3.629134E+01  1.552868E+07  1.553611E+07  9.847196E-01  1.528043E-02  0.000000E+00  1.024000E+03  1.506320E+02  3.451802E-17  3.214898E-01    1 
 5.000000E-01  5.000000E-01  1.345000E+02  3.625069E+01  1.551864E+07  1.552609E+07  9.846567E-01  1.534328E-02  0.000000E+00  1.024000E+03  1.505654E+02  3.452381E-17  3.217469E-01    1 
 5.000000E-01  5.000000E-01  1.355000E+02  3.621005E+01  1.550859E+07  1.551607E+07  9.845941E-01  1.540595E-02  0.000000E+00  1.024000E+03  1.504987E+02  3.452960E-17  3.220042E-01    1 
 5.000000E-01  5.000000E-01  1.365000E+02  3.616941E+01  1.549855E+07  1.550605E+07  9.845316E-01  1.546845E-02  0.000000E+00  1.024000E+03  1.504320E+02  3.453540E-17  3.222617E-01    1 
 5.000000E-01  5.000000E-01  1.375000E+02  3.612877E+01  1.548850E+07  1.549603E+07  9.844692E-01  1.553079E-02  0.000000E+00  1.024000E+03  1.503652E+02  3.454121E-17  3.225194E-01    1 
 5.000000E-01  5.000000E-01  1.385000E+02  3.608813E+01  1.547846E+07  1.548601E+07  9.844070E-01  1.559299E-02  0.000000E+00  1.024000E+03  1.502985E+02  3.454701E-17  3.227773E-01    1 
 5.000000E-01  5.000000E-01  1.395000E+02  3.604750E+01  1.546842E+07  1.547598E+07  9.843449E-01  1.565507E-02  0.000000E+00  1.024000E+03  1.502316E+02  3.455283E-17  3.230354E-01    1 
 5.000000E-01  5.000000E-01  1.405000E+02  3.600688E+01  1.545837E+07  1.546596E+07  9.842830E-01  1.571704E-02  0.000000E+00  1.024000E+03  1.501648E+02  3.455865E-17  3.232937E-01    1 
 5.000000E-01  5.000000E-01  1.415000E+02  3.596625E+01  1.544833E+07  1.545594E+07  9.842211E-01  1.577890E-02  0.000000E+00  1.024000E+03  1.500979E+02  3.456448E-17  3.235523E-01    1 
 5.000000E-01  5.000000E-01  1.425000E+02  3.592563E+01  1.543828E+07  1.544592E+07  9.841593E-01  1.584068E-02  0.000000E+00  1.024000E+03  1.500310E+02  3.457031E-17  3.238110E-01    1 
 5.000000E-01  5.000000E-01  1.435000E+02  3.588501E+01  1.542824E+07  1.543589E+07  9.840976E-01  1.590239E-02  0.000000E+00  1.024000E+03  1.499641E+02  3.457615E-17  3.240699E-01    1 
 5.000000E-01  5.000000E-01  1.445000E+02  3.584440E+01  1.541819E+07  1.542587E+07  9.840360E-01  1.596403E-02  0.000000E+00  1.024000E+03  1.498972E+02  3.458199E-17  3.243291E-01    1 
 5.000000E-01  5.000000E-01  1.455000E+02  3.580378E+01  1.540815E+07  1.541585E+07  9.839744E-01  1.602562E-02  0.000000E+00  1.024000E+03  1.498302E+02  3.458784E-17  3.245885E-01    1 
 5.000000E-01  5.000000E-01  1.465000E+02  3.576318E+01  1.539810E+07  1.540582E+07  9.839128E-01  1.608717E-02  0.000000E+00  1.024000E+03  1.497632E+02  3.459370E-17  3.248480E-01    1 
 5.000000E-01  5.000000E-01  1.475000E+02  3.572257E+01  1.538806E+07  1.539580E+07  9.838513E-01  1.614869E-02  0.000000E+00  1.024000E+03  1.496961E+02  3.459956E-17  3.251078E-01    1 
 5.000000E-01  5.000000E-01  1.485000E+02  3.568197E+01  1.537801E+07  1.538578E+07  9.837898E-01  1.621019E-02  0.000000E+00  1.024000E+03  1.496290E+02  3.460542E-17  3.253678E-01    1 
 5.000000E-01  5.000000E-01  1.495000E+02  3.564137E+01  1.536797E+07  1.537575E+07  9.837283E-01  1.627167E-02  0.000000E+00  1.024000E+03  1.495619E+02  3.461129E-17  3.256280E-01    1 
 5.000000E-01  5.000000E-01  1.505000E+02  3.560077E+01  1.535792E+07  1.536573E+07  9.836669E-01  1.633315E-02  0.000000E+00  1.024000E+03  1.494948E+02  3.461717E-17  3.258884E-01    1 
 5.000000E-01  5.000000E-01  1.515000E+02  3.556018E+01  1.534788E+07  1.535571E+07  9.836054E-01  1.639462E-02  0.000000E+00  1.024000E+03  1.494276E+02  3.462306E-17  3.261490E-01    1 
 5.000000E-01  5.000000E-01  1.525000E+02  3.551959E+01  1.533783E+07  1.534568E+07  9.835439E-01  1.645611E-02  0.000000E+00  1.024000E+03  1.493604E+02  3.462894E-17  3.264098E-01    1 
 5.000000E-01  5.000000E-01  1.535000E+02  3.547900E+01  1.532779E+07  1.533566E+07  9.834824E-01  1.651762E-02  0.000000E+00  1.024000E+03  1.492932E+02  3.463484E-17  3.266708E-01    1 
 5.000000E-01  5.000000E-01  1.545000E+02  3.543842E+01  1.531774E+07  1.532563E+07  9.834208E-01  1.657915E-02  0.000000E+00  1.024000E+03  1.492259E+02  3.464074E-17  3.269320E-01    1 
 5.000000E-01  5.000000E-01  1.555000E+02  3.539784E+01  1.530770E+07  1.531561E+07  9.833593E-01  1.664071E-02  0.000000E+00  1.024000E+03  1.491587E+02  3.464665E-17  3.271935E-01    1 
 5.000000E-01  5.000000E-01  1.565000E+02  3.535727E+01  1.529765E+07  1.530558E+07  9.832977E-01  1.670230E-02  0.000000E+00  1.024000E+03  1.490913E+02  3.465256E-17  3.274551E-01    1 