TITLE = "  1.05100E+05 [y]"
VARIABLES="X [m]","Y [m]","Z [m]","Temperature [C]","Liquid Pressure [Pa]","Gas Pressure [Pa]","Liquid Saturation","Gas Saturation","Hydrate Saturation","Liquid Density [kg/m^3]","Gas Density [kg/m^3]","Permeability X [m^2]","Porosity","Material ID"
ZONE T="1.05100E+05", STRANDID=1, SOLUTIONTIME=1.05100E+05, I=1, J=1, K=1000, DATAPACKING=POINT
 5.000000E-01  5.000000E-01  5.000000E-01  4.133082E+01  1.682804E+07  1.683379E+07  9.889485E-01  1.105148E-02  0.000000E+00  1.024000E+03  1.591385E+02  3.379583E-17  2.890648E-01    1 
 5.000000E-01  5.000000E-01  1.500000E+00  4.128975E+01  1.681801E+07  1.682379E+07  9.888711E-01  1.112893E-02  0.000000E+00  1.024000E+03  1.590755E+02  3.380093E-17  2.892959E-01    1 
 5.000000E-01  5.000000E-01  2.500000E+00  4.124869E+01  1.680797E+07  1.681379E+07  9.888013E-01  1.119866E-02  0.000000E+00  1.024000E+03  1.590125E+02  3.380603E-17  2.895273E-01    1 
 5.000000E-01  5.000000E-01  3.500000E+00  4.120762E+01  1.679794E+07  1.680378E+07  9.887322E-01  1.126781E-02  0.000000E+00  1.024000E+03  1.589494E+02  3.381113E-17  2.897588E-01    1 
 5.000000E-01  5.000000E-01  4.500000E+00  4.116656E+01  1.678790E+07  1.679377E+07  9.886636E-01  1.133638E-02  0.000000E+00  1.024000E+03  1.588864E+02  3.381624E-17  2.899905E-01    1 
 5.000000E-01  5.000000E-01  5.500000E+00  4.112551E+01  1.677787E+07  1.678377E+07  9.885956E-01  1.140437E-02  0.000000E+00  1.024000E+03  1.588232E+02  3.382135E-17  2.902224E-01    1 
 5.000000E-01  5.000000E-01  6.500000E+00  4.108445E+01  1.676783E+07  1.677376E+07  9.885282E-01  1.147178E-02  0.000000E+00  1.024000E+03  1.587601E+02  3.382647E-17  2.904545E-01    1 
 5.000000E-01  5.000000E-01  7.500000E+00  4.104340E+01  1.675779E+07  1.676375E+07  9.884614E-01  1.153861E-02  0.000000E+00  1.024000E+03  1.586969E+02  3.383160E-17  2.906868E-01    1 
 5.000000E-01  5.000000E-01  8.500000E+00  4.100235E+01  1.674776E+07  1.675375E+07  9.883951E-01  1.160486E-02  0.000000E+00  1.024000E+03  1.586337E+02  3.383673E-17  2.909192E-01    1 
 5.000000E-01  5.000000E-01  9.500000E+00  4.096131E+01  1.673772E+07  1.674374E+07  9.883295E-01  1.167054E-02  0.000000E+00  1.024000E+03  1.585705E+02  3.384186E-17  2.911519E-01    1 
 5.000000E-01  5.000000E-01  1.050000E+01  4.092027E+01  1.672769E+07  1.673373E+07  9.882643E-01  1.173567E-02  0.000000E+00  1.024000E+03  1.585072E+02  3.384700E-17  2.913847E-01    1 
 5.000000E-01  5.000000E-01  1.150000E+01  4.087923E+01  1.671765E+07  1.672372E+07  9.881997E-01  1.180027E-02  0.000000E+00  1.024000E+03  1.584439E+02  3.385214E-17  2.916177E-01    1 
 5.000000E-01  5.000000E-01  1.250000E+01  4.083819E+01  1.670762E+07  1.671372E+07  9.881356E-01  1.186435E-02  0.000000E+00  1.024000E+03  1.583806E+02  3.385729E-17  2.918509E-01    1 
 5.000000E-01  5.000000E-01  1.350000E+01  4.079716E+01  1.669758E+07  1.670371E+07  9.880721E-01  1.192794E-02  0.000000E+00  1.024000E+03  1.583173E+02  3.386244E-17  2.920843E-01    1 
 5.000000E-01  5.000000E-01  1.450000E+01  4.075613E+01  1.668755E+07  1.669370E+07  9.880089E-01  1.199107E-02  0.000000E+00  1.024000E+03  1.582539E+02  3.386760E-17  2.923179E-01    1 
 5.000000E-01  5.000000E-01  1.550000E+01  4.071510E+01  1.667751E+07  1.668369E+07  9.879463E-01  1.205375E-02  0.000000E+00  1.024000E+03  1.581905E+02  3.387276E-17  2.925516E-01    1 
 5.000000E-01  5.000000E-01  1.650000E+01  4.067407E+01  1.666748E+07  1.667368E+07  9.878840E-01  1.211602E-02  0.000000E+00  1.024000E+03  1.581270E+02  3.387793E-17  2.927856E-01    1 
 5.000000E-01  5.000000E-01  1.750000E+01  4.063305E+01  1.665744E+07  1.666367E+07  9.878221E-01  1.217791E-02  0.000000E+00  1.024000E+03  1.580636E+02  3.388310E-17  2.930197E-01    1 
 5.000000E-01  5.000000E-01  1.850000E+01  4.059203E+01  1.664741E+07  1.665366E+07  9.877605E-01  1.223946E-02  0.000000E+00  1.024000E+03  1.580001E+02  3.388828E-17  2.932541E-01    1 
 5.000000E-01  5.000000E-01  1.950000E+01  4.055102E+01  1.663737E+07  1.664365E+07  9.876993E-01  1.230068E-02  0.000000E+00  1.024000E+03  1.579366E+02  3.389346E-17  2.934886E-01    1 
 5.000000E-01  5.000000E-01  2.050000E+01  4.051000E+01  1.662734E+07  1.663364E+07  9.876384E-01  1.236162E-02  0.000000E+00  1.024000E+03  1.578730E+02  3.389865E-17  2.937233E-01    1 
 5.000000E-01  5.000000E-01  2.150000E+01  4.046899E+01  1.661730E+07  1.662363E+07  9.875777E-01  1.242230E-02  0.000000E+00  1.024000E+03  1.578095E+02  3.390384E-17  2.939581E-01    1 
 5.000000E-01  5.000000E-01  2.250000E+01  4.042799E+01  1.660727E+07  1.661362E+07  9.875172E-01  1.248275E-02  0.000000E+00  1.024000E+03  1.577459E+02  3.390904E-17  2.941932E-01    1 
 5.000000E-01  5.000000E-01  2.350000E+01  4.038698E+01  1.659723E+07  1.660361E+07  9.874570E-01  1.254302E-02  0.000000E+00  1.024000E+03  1.576822E+02  3.391424E-17  2.944285E-01    1 
 5.000000E-01  5.000000E-01  2.450000E+01  4.034598E+01  1.658719E+07  1.659360E+07  9.873969E-01  1.260312E-02  0.000000E+00  1.024000E+03  1.576186E+02  3.391945E-17  2.946639E-01    1 
 5.000000E-01  5.000000E-01  2.550000E+01  4.030498E+01  1.657716E+07  1.658359E+07  9.873369E-01  1.266310E-02  0.000000E+00  1.024000E+03  1.575549E+02  3.392466E-17  2.948996E-01    1 
 5.000000E-01  5.000000E-01  2.650000E+01  4.026399E+01  1.656712E+07  1.657357E+07  9.872770E-01  1.272297E-02  0.000000E+00  1.024000E+03  1.574912E+02  3.392988E-17  2.951354E-01    1 
 5.000000E-01  5.000000E-01  2.750000E+01  4.022300E+01  1.655709E+07  1.656356E+07  9.872172E-01  1.278278E-02  0.000000E+00  1.024000E+03  1.574274E+02  3.393510E-17  2.953714E-01    1 
 5.000000E-01  5.000000E-01  2.850000E+01  4.018201E+01  1.654705E+07  1.655355E+07  9.871575E-01  1.284255E-02  0.000000E+00  1.024000E+03  1.573637E+02  3.394033E-17  2.956076E-01    1 
 5.000000E-01  5.000000E-01  2.950000E+01  4.014102E+01  1.653702E+07  1.654354E+07  9.870977E-01  1.290230E-02  0.000000E+00  1.024000E+03  1.572999E+02  3.394556E-17  2.958440E-01    1 
 5.000000E-01  5.000000E-01  3.050000E+01  4.010004E+01  1.652698E+07  1.653353E+07  9.870379E-01  1.296208E-02  0.000000E+00  1.024000E+03  1.572361E+02  3.395080E-17  2.960806E-01    1 
 5.000000E-01  5.000000E-01  3.150000E+01  4.005906E+01  1.651695E+07  1.652352E+07  9.869781E-01  1.302189E-02  0.000000E+00  1.024000E+03  1.571722E+02  3.395604E-17  2.963173E-01    1 
 5.000000E-01  5.000000E-01  3.250000E+01  4.001808E+01  1.650691E+07  1.651351E+07  9.869182E-01  1.308179E-02  0.000000E+00  1.024000E+03  1.571083E+02  3.396129E-17  2.965543E-01    1 
 5.000000E-01  5.000000E-01  3.350000E+01  3.997711E+01  1.649688E+07  1.650350E+07  9.868582E-01  1.314178E-02  0.000000E+00  1.024000E+03  1.570444E+02  3.396654E-17  2.967915E-01    1 
 5.000000E-01  5.000000E-01  3.450000E+01  3.993614E+01  1.648684E+07  1.649348E+07  9.867981E-01  1.320190E-02  0.000000E+00  1.024000E+03  1.569805E+02  3.397180E-17  2.970288E-01    1 
 5.000000E-01  5.000000E-01  3.550000E+01  3.989517E+01  1.647681E+07  1.648347E+07  9.867378E-01  1.326217E-02  0.000000E+00  1.024000E+03  1.569165E+02  3.397706E-17  2.972663E-01    1 
 5.000000E-01  5.000000E-01  3.650000E+01  3.985421E+01  1.646677E+07  1.647346E+07  9.866774E-01  1.332262E-02  0.000000E+00  1.024000E+03  1.568526E+02  3.398233E-17  2.975040E-01    1 
 5.000000E-01  5.000000E-01  3.750000E+01  3.981324E+01  1.645674E+07  1.646345E+07  9.866167E-01  1.338328E-02  0.000000E+00  1.024000E+03  1.567885E+02  3.398760E-17  2.977419E-01    1 
 5.000000E-01  5.000000E-01  3.850000E+01  3.977228E+01  1.644670E+07  1.645344E+07  9.865558E-01  1.344416E-02  0.000000E+00  1.024000E+03  1.567245E+02  3.399288E-17  2.979800E-01    1 
 5.000000E-01  5.000000E-01  3.950000E+01  3.973133E+01  1.643666E+07  1.644343E+07  9.864947E-01  1.350529E-02  0.000000E+00  1.024000E+03  1.566604E+02  3.399816E-17  2.982183E-01    1 
 5.000000E-01  5.000000E-01  4.050000E+01  3.969038E+01  1.642663E+07  1.643342E+07  9.864333E-01  1.356670E-02  0.000000E+00  1.024000E+03  1.565964E+02  3.400345E-17  2.984568E-01    1 
 5.000000E-01  5.000000E-01  4.150000E+01  3.964943E+01  1.641659E+07  1.642340E+07  9.863716E-01  1.362840E-02  0.000000E+00  1.024000E+03  1.565322E+02  3.400874E-17  2.986955E-01    1 
 5.000000E-01  5.000000E-01  4.250000E+01  3.960848E+01  1.640656E+07  1.641339E+07  9.863096E-01  1.369042E-02  0.000000E+00  1.024000E+03  1.564681E+02  3.401404E-17  2.989343E-01    1 
 5.000000E-01  5.000000E-01  4.350000E+01  3.956754E+01  1.639652E+07  1.640338E+07  9.862472E-01  1.375278E-02  0.000000E+00  1.024000E+03  1.564039E+02  3.401934E-17  2.991734E-01    1 
 5.000000E-01  5.000000E-01  4.450000E+01  3.952660E+01  1.638649E+07  1.639337E+07  9.861845E-01  1.381549E-02  0.000000E+00  1.024000E+03  1.563397E+02  3.402465E-17  2.994126E-01    1 
 5.000000E-01  5.000000E-01  4.550000E+01  3.948566E+01  1.637645E+07  1.638336E+07  9.861214E-01  1.387857E-02  0.000000E+00  1.024000E+03  1.562755E+02  3.402996E-17  2.996521E-01    1 
 5.000000E-01  5.000000E-01  4.650000E+01  3.944472E+01  1.636642E+07  1.637335E+07  9.860580E-01  1.394204E-02  0.000000E+00  1.024000E+03  1.562113E+02  3.403528E-17  2.998917E-01    1 
 5.000000E-01  5.000000E-01  4.750000E+01  3.940379E+01  1.635638E+07  1.636334E+07  9.859941E-01  1.400590E-02  0.000000E+00  1.024000E+03  1.561470E+02  3.404060E-17  3.001315E-01    1 
 5.000000E-01  5.000000E-01  4.850000E+01  3.936286E+01  1.634635E+07  1.635333E+07  9.859298E-01  1.407018E-02  0.000000E+00  1.024000E+03  1.560827E+02  3.404593E-17  3.003715E-01    1 
 5.000000E-01  5.000000E-01  4.950000E+01  3.932194E+01  1.633631E+07  1.634332E+07  9.858651E-01  1.413489E-02  0.000000E+00  1.024000E+03  1.560184E+02  3.405126E-17  3.006117E-01    1 
 5.000000E-01  5.000000E-01  5.050000E+01  3.928101E+01  1.632628E+07  1.633331E+07  9.858000E-01  1.420002E-02  0.000000E+00  1.024000E+03  1.559540E+02  3.405660E-17  3.008521E-01    1 
 5.000000E-01  5.000000E-01  5.150000E+01  3.924010E+01  1.631624E+07  1.632330E+07  9.857344E-01  1.426559E-02  0.000000E+00  1.024000E+03  1.558896E+02  3.406195E-17  3.010927E-01    1 
 5.000000E-01  5.000000E-01  5.250000E+01  3.919918E+01  1.630621E+07  1.631329E+07  9.856684E-01  1.433159E-02  0.000000E+00  1.024000E+03  1.558252E+02  3.406729E-17  3.013335E-01    1 
 5.000000E-01  5.000000E-01  5.350000E+01  3.915827E+01  1.629617E+07  1.630328E+07  9.856020E-01  1.439804E-02  0.000000E+00  1.024000E+03  1.557608E+02  3.407265E-17  3.015744E-01    1 
 5.000000E-01  5.000000E-01  5.450000E+01  3.911736E+01  1.628613E+07  1.629327E+07  9.855351E-01  1.446492E-02  0.000000E+00  1.024000E+03  1.556963E+02  3.407801E-17  3.018156E-01    1 
 5.000000E-01  5.000000E-01  5.550000E+01  3.907645E+01  1.627610E+07  1.628326E+07  9.854678E-01  1.453223E-02  0.000000E+00  1.024000E+03  1.556319E+02  3.408337E-17  3.020570E-01    1 
 5.000000E-01  5.000000E-01  5.650000E+01  3.903554E+01  1.626606E+07  1.627325E+07  9.854000E-01  1.459997E-02  0.000000E+00  1.024000E+03  1.555673E+02  3.408874E-17  3.022985E-01    1 
 5.000000E-01  5.000000E-01  5.750000E+01  3.899464E+01  1.625603E+07  1.626324E+07  9.853319E-01  1.466812E-02  0.000000E+00  1.024000E+03  1.555028E+02  3.409411E-17  3.025403E-01    1 
 5.000000E-01  5.000000E-01  5.850000E+01  3.895374E+01  1.624599E+07  1.625323E+07  9.852633E-01  1.473666E-02  0.000000E+00  1.024000E+03  1.554382E+02  3.409949E-17  3.027822E-01    1 
 5.000000E-01  5.000000E-01  5.950000E+01  3.891285E+01  1.623596E+07  1.624322E+07  9.851944E-01  1.480560E-02  0.000000E+00  1.024000E+03  1.553736E+02  3.410488E-17  3.030243E-01    1 
 5.000000E-01  5.000000E-01  6.050000E+01  3.887196E+01  1.622592E+07  1.623321E+07  9.851251E-01  1.487489E-02  0.000000E+00  1.024000E+03  1.553090E+02  3.411027E-17  3.032666E-01    1 
 5.000000E-01  5.000000E-01  6.150000E+01  3.883107E+01  1.621589E+07  1.622320E+07  9.850555E-01  1.494453E-02  0.000000E+00  1.024000E+03  1.552444E+02  3.411566E-17  3.035092E-01    1 
 5.000000E-01  5.000000E-01  6.250000E+01  3.879018E+01  1.620585E+07  1.621319E+07  9.849855E-01  1.501448E-02  0.000000E+00  1.024000E+03  1.551797E+02  3.412106E-17  3.037519E-01    1 
 5.000000E-01  5.000000E-01  6.350000E+01  3.874930E+01  1.619582E+07  1.620318E+07  9.849153E-01  1.508473E-02  0.000000E+00  1.024000E+03  1.551150E+02  3.412647E-17  3.039948E-01    1 
 5.000000E-01  5.000000E-01  6.450000E+01  3.870842E+01  1.618578E+07  1.619317E+07  9.848448E-01  1.515523E-02  0.000000E+00  1.024000E+03  1.550503E+02  3.413188E-17  3.042379E-01    1 
 5.000000E-01  5.000000E-01  6.550000E+01  3.866754E+01  1.617575E+07  1.618316E+07  9.847740E-01  1.522597E-02  0.000000E+00  1.024000E+03  1.549855E+02  3.413729E-17  3.044812E-01    1 
 5.000000E-01  5.000000E-01  6.650000E+01  3.862667E+01  1.616571E+07  1.617315E+07  9.847031E-01  1.529691E-02  0.000000E+00  1.024000E+03  1.549208E+02  3.414271E-17  3.047247E-01    1 
 5.000000E-01  5.000000E-01  6.750000E+01  3.858580E+01  1.615567E+07  1.616314E+07  9.846320E-01  1.536801E-02  0.000000E+00  1.024000E+03  1.548559E+02  3.414814E-17  3.049683E-01    1 
 5.000000E-01  5.000000E-01  6.850000E+01  3.854493E+01  1.614564E+07  1.615313E+07  9.845608E-01  1.543924E-02  0.000000E+00  1.024000E+03  1.547911E+02  3.415357E-17  3.052122E-01    1 
 5.000000E-01  5.000000E-01  6.950000E+01  3.850406E+01  1.613560E+07  1.614312E+07  9.844894E-01  1.551057E-02  0.000000E+00  1.024000E+03  1.547263E+02  3.415901E-17  3.054563E-01    1 
 5.000000E-01  5.000000E-01  7.050000E+01  3.846320E+01  1.612557E+07  1.613311E+07  9.844180E-01  1.558196E-02  0.000000E+00  1.024000E+03  1.546614E+02  3.416445E-17  3.057006E-01    1 
 5.000000E-01  5.000000E-01  7.150000E+01  3.842234E+01  1.611553E+07  1.612310E+07  9.843466E-01  1.565338E-02  0.000000E+00  1.024000E+03  1.545964E+02  3.416989E-17  3.059450E-01    1 
 5.000000E-01  5.000000E-01  7.250000E+01  3.838149E+01  1.610550E+07  1.611309E+07  9.842752E-01  1.572479E-02  0.000000E+00  1.024000E+03  1.545315E+02  3.417535E-17  3.061897E-01    1 
 5.000000E-01  5.000000E-01  7.350000E+01  3.834064E+01  1.609546E+07  1.610308E+07  9.842039E-01  1.579615E-02  0.000000E+00  1.024000E+03  1.544665E+02  3.418080E-17  3.064345E-01    1 
 5.000000E-01  5.000000E-01  7.450000E+01  3.829979E+01  1.608543E+07  1.609307E+07  9.841326E-01  1.586744E-02  0.000000E+00  1.024000E+03  1.544015E+02  3.418627E-17  3.066796E-01    1 
 5.000000E-01  5.000000E-01  7.550000E+01  3.825894E+01  1.607539E+07  1.608306E+07  9.840614E-01  1.593862E-02  0.000000E+00  1.024000E+03  1.543365E+02  3.419173E-17  3.069248E-01    1 
 5.000000E-01  5.000000E-01  7.650000E+01  3.821810E+01  1.606536E+07  1.607305E+07  9.839903E-01  1.600966E-02  0.000000E+00  1.024000E+03  1.542714E+02  3.419721E-17  3.071703E-01    1 
 5.000000E-01  5.000000E-01  7.750000E+01  3.817726E+01  1.605532E+07  1.606304E+07  9.839195E-01  1.608055E-02  0.000000E+00  1.024000E+03  1.542063E+02  3.420268E-17  3.074159E-01    1 
 5.000000E-01  5.000000E-01  7.850000E+01  3.813642E+01  1.604528E+07  1.605303E+07  9.838488E-01  1.615124E-02  0.000000E+00  1.024000E+03  1.541412E+02  3.420817E-17  3.076617E-01    1 
 5.000000E-01  5.000000E-01  7.950000E+01  3.809559E+01  1.603525E+07  1.604302E+07  9.837783E-01  1.622172E-02  0.000000E+00  1.024000E+03  1.540761E+02  3.421366E-17  3.079078E-01    1 
 5.000000E-01  5.000000E-01  8.050000E+01  3.805476E+01  1.602521E+07  1.603301E+07  9.837080E-01  1.629197E-02  0.000000E+00  1.024000E+03  1.540109E+02  3.421915E-17  3.081540E-01    1 
 5.000000E-01  5.000000E-01  8.150000E+01  3.801393E+01  1.601518E+07  1.602300E+07  9.836380E-01  1.636198E-02  0.000000E+00  1.024000E+03  1.539457E+02  3.422465E-17  3.084004E-01    1 
 5.000000E-01  5.000000E-01  8.250000E+01  3.797310E+01  1.600514E+07  1.601298E+07  9.835683E-01  1.643172E-02  0.000000E+00  1.024000E+03  1.538805E+02  3.423015E-17  3.086470E-01    1 
 5.000000E-01  5.000000E-01  8.350000E+01  3.793228E+01  1.599511E+07  1.600297E+07  9.834988E-01  1.650118E-02  0.000000E+00  1.024000E+03  1.538152E+02  3.423566E-17  3.088939E-01    1 
 5.000000E-01  5.000000E-01  8.450000E+01  3.789146E+01  1.598507E+07  1.599296E+07  9.834296E-01  1.657036E-02  0.000000E+00  1.024000E+03  1.537499E+02  3.424118E-17  3.091409E-01    1 
 5.000000E-01  5.000000E-01  8.550000E+01  3.785065E+01  1.597504E+07  1.598295E+07  9.833607E-01  1.663925E-02  0.000000E+00  1.024000E+03  1.536846E+02  3.424670E-17  3.093881E-01    1 
 5.000000E-01  5.000000E-01  8.650000E+01  3.780983E+01  1.596500E+07  1.597294E+07  9.832922E-01  1.670785E-02  0.000000E+00  1.024000E+03  1.536192E+02  3.425222E-17  3.096355E-01    1 
 5.000000E-01  5.000000E-01  8.750000E+01  3.776903E+01  1.595497E+07  1.596293E+07  9.832239E-01  1.677614E-02  0.000000E+00  1.024000E+03  1.535539E+02  3.425775E-17  3.098831E-01    1 
 5.000000E-01  5.000000E-01  8.850000E+01  3.772822E+01  1.594493E+07  1.595291E+07  9.831559E-01  1.684414E-02  0.000000E+00  1.024000E+03  1.534884E+02  3.426329E-17  3.101309E-01    1 
 5.000000E-01  5.000000E-01  8.950000E+01  3.768742E+01  1.593490E+07  1.594290E+07  9.830882E-01  1.691185E-02  0.000000E+00  1.024000E+03  1.534230E+02  3.426883E-17  3.103789E-01    1 
 5.000000E-01  5.000000E-01  9.050000E+01  3.764662E+01  1.592486E+07  1.593289E+07  9.830207E-01  1.697926E-02  0.000000E+00  1.024000E+03  1.533575E+02  3.427438E-17  3.106271E-01    1 
 5.000000E-01  5.000000E-01  9.150000E+01  3.760582E+01  1.591482E+07  1.592287E+07  9.829536E-01  1.704639E-02  0.000000E+00  1.024000E+03  1.532920E+02  3.427993E-17  3.108755E-01    1 
 5.000000E-01  5.000000E-01  9.250000E+01  3.756503E+01  1.590479E+07  1.591286E+07  9.828868E-01  1.711325E-02  0.000000E+00  1.024000E+03  1.532265E+02  3.428549E-17  3.111241E-01    1 
 5.000000E-01  5.000000E-01  9.350000E+01  3.752424E+01  1.589475E+07  1.590285E+07  9.828202E-01  1.717983E-02  0.000000E+00  1.024000E+03  1.531610E+02  3.429105E-17  3.113729E-01    1 
 5.000000E-01  5.000000E-01  9.450000E+01  3.748345E+01  1.588472E+07  1.589283E+07  9.827538E-01  1.724616E-02  0.000000E+00  1.024000E+03  1.530954E+02  3.429662E-17  3.116219E-01    1 
 5.000000E-01  5.000000E-01  9.550000E+01  3.744266E+01  1.587468E+07  1.588282E+07  9.826878E-01  1.731224E-02  0.000000E+00  1.024000E+03  1.530298E+02  3.430219E-17  3.118711E-01    1 
 5.000000E-01  5.000000E-01  9.650000E+01  3.740188E+01  1.586465E+07  1.587281E+07  9.826219E-01  1.737808E-02  0.000000E+00  1.024000E+03  1.529641E+02  3.430777E-17  3.121205E-01    1 
 5.000000E-01  5.000000E-01  9.750000E+01  3.736111E+01  1.585461E+07  1.586279E+07  9.825563E-01  1.744371E-02  0.000000E+00  1.024000E+03  1.528985E+02  3.431336E-17  3.123701E-01    1 
 5.000000E-01  5.000000E-01  9.850000E+01  3.732033E+01  1.584458E+07  1.585278E+07  9.824909E-01  1.750912E-02  0.000000E+00  1.024000E+03  1.528328E+02  3.431895E-17  3.126199E-01    1 
 5.000000E-01  5.000000E-01  9.950000E+01  3.727956E+01  1.583454E+07  1.584277E+07  9.824257E-01  1.757433E-02  0.000000E+00  1.024000E+03  1.527670E+02  3.432454E-17  3.128699E-01    1 
 5.000000E-01  5.000000E-01  1.005000E+02  3.723879E+01  1.582451E+07  1.583275E+07  9.823606E-01  1.763935E-02  0.000000E+00  1.024000E+03  1.527013E+02  3.433014E-17  3.131201E-01    1 
 5.000000E-01  5.000000E-01  1.015000E+02  3.719803E+01  1.581447E+07  1.582274E+07  9.822958E-01  1.770421E-02  0.000000E+00  1.024000E+03  1.526355E+02  3.433575E-17  3.133705E-01    1 
 5.000000E-01  5.000000E-01  1.025000E+02  3.715726E+01  1.580443E+07  1.581272E+07  9.822311E-01  1.776890E-02  0.000000E+00  1.024000E+03  1.525697E+02  3.434136E-17  3.136211E-01    1 
 5.000000E-01  5.000000E-01  1.035000E+02  3.711651E+01  1.579440E+07  1.580271E+07  9.821665E-01  1.783345E-02  0.000000E+00  1.024000E+03  1.525038E+02  3.434698E-17  3.138719E-01    1 
 5.000000E-01  5.000000E-01  1.045000E+02  3.707575E+01  1.578436E+07  1.579269E+07  9.821021E-01  1.789786E-02  0.000000E+00  1.024000E+03  1.524380E+02  3.435260E-17  3.141229E-01    1 
 5.000000E-01  5.000000E-01  1.055000E+02  3.703500E+01  1.577433E+07  1.578268E+07  9.820378E-01  1.796216E-02  0.000000E+00  1.024000E+03  1.523721E+02  3.435823E-17  3.143741E-01    1 
 5.000000E-01  5.000000E-01  1.065000E+02  3.699425E+01  1.576429E+07  1.577266E+07  9.819737E-01  1.802634E-02  0.000000E+00  1.024000E+03  1.523061E+02  3.436386E-17  3.146255E-01    1 
 5.000000E-01  5.000000E-01  1.075000E+02  3.695350E+01  1.575426E+07  1.576265E+07  9.819096E-01  1.809042E-02  0.000000E+00  1.024000E+03  1.522402E+02  3.436950E-17  3.148771E-01    1 
 5.000000E-01  5.000000E-01  1.085000E+02  3.691276E+01  1.574422E+07  1.575263E+07  9.818456E-01  1.815442E-02  0.000000E+00  1.024000E+03  1.521742E+02  3.437514E-17  3.151289E-01    1 
 5.000000E-01  5.000000E-01  1.095000E+02  3.687202E+01  1.573419E+07  1.574262E+07  9.817817E-01  1.821835E-02  0.000000E+00  1.024000E+03  1.521082E+02  3.438079E-17  3.153809E-01    1 
 5.000000E-01  5.000000E-01  1.105000E+02  3.683128E+01  1.572415E+07  1.573260E+07  9.817178E-01  1.828221E-02  0.000000E+00  1.024000E+03  1.520421E+02  3.438645E-17  3.156331E-01    1 
 5.000000E-01  5.000000E-01  1.115000E+02  3.679055E+01  1.571412E+07  1.572259E+07  9.816540E-01  1.834601E-02  0.000000E+00  1.024000E+03  1.519761E+02  3.439211E-17  3.158855E-01    1 
 5.000000E-01  5.000000E-01  1.125000E+02  3.674982E+01  1.570408E+07  1.571257E+07  9.815902E-01  1.840977E-02  0.000000E+00  1.024000E+03  1.519100E+02  3.439777E-17  3.161381E-01    1 
 5.000000E-01  5.000000E-01  1.135000E+02  3.670909E+01  1.569405E+07  1.570256E+07  9.815265E-01  1.847349E-02  0.000000E+00  1.024000E+03  1.518438E+02  3.440344E-17  3.163909E-01    1 
 5.000000E-01  5.000000E-01  1.145000E+02  3.666837E+01  1.568401E+07  1.569254E+07  9.814628E-01  1.853719E-02  0.000000E+00  1.024000E+03  1.517777E+02  3.440912E-17  3.166439E-01    1 
 5.000000E-01  5.000000E-01  1.155000E+02  3.662765E+01  1.567397E+07  1.568253E+07  9.813991E-01  1.860087E-02  0.000000E+00  1.024000E+03  1.517115E+02  3.441480E-17  3.168971E-01    1 
 5.000000E-01  5.000000E-01  1.165000E+02  3.658693E+01  1.566394E+07  1.567251E+07  9.813355E-01  1.866454E-02  0.000000E+00  1.024000E+03  1.516453E+02  3.442049E-17  3.171506E-01    1 
 5.000000E-01  5.000000E-01  1.175000E+02  3.654622E+01  1.565390E+07  1.566250E+07  9.812718E-01  1.872820E-02  0.000000E+00  1.024000E+03  1.515790E+02  3.442618E-17  3.174042E-01    1 
 5.000000E-01  5.000000E-01  1.185000E+02  3.650551E+01  1.564387E+07  1.565248E+07  9.812081E-01  1.879187E-02  0.000000E+00  1.024000E+03  1.515127E+02  3.443188E-17  3.176580E-01    1 
 5.000000E-01  5.000000E-01  1.195000E+02  3.646480E+01  1.563383E+07  1.564246E+07  9.811444E-01  1.885555E-02  0.000000E+00  1.024000E+03  1.514464E+02  3.443758E-17  3.179120E-01    1 
 5.000000E-01  5.000000E-01  1.205000E+02  3.642410E+01  1.562380E+07  1.563245E+07  9.810807E-01  1.891925E-02  0.000000E+00  1.024000E+03  1.513801E+02  3.444329E-17  3.181663E-01    1 
 5.000000E-01  5.000000E-01  1.215000E+02  3.638340E+01  1.561376E+07  1.562243E+07  9.810170E-01  1.898297E-02  0.000000E+00  1.024000E+03  1.513138E+02  3.444901E-17  3.184207E-01    1 
 5.000000E-01  5.000000E-01  1.225000E+02  3.634270E+01  1.560373E+07  1.561242E+07  9.809533E-01  1.904672E-02  0.000000E+00  1.024000E+03  1.512474E+02  3.445473E-17  3.186753E-01    1 
 5.000000E-01  5.000000E-01  1.235000E+02  3.630201E+01  1.559369E+07  1.560240E+07  9.808895E-01  1.911051E-02  0.000000E+00  1.024000E+03  1.511810E+02  3.446046E-17  3.189302E-01    1 
 5.000000E-01  5.000000E-01  1.245000E+02  3.626132E+01  1.558366E+07  1.559238E+07  9.808257E-01  1.917433E-02  0.000000E+00  1.024000E+03  1.511145E+02  3.446619E-17  3.191852E-01    1 
 5.000000E-01  5.000000E-01  1.255000E+02  3.622063E+01  1.557362E+07  1.558237E+07  9.807618E-01  1.923819E-02  0.000000E+00  1.024000E+03  1.510480E+02  3.447192E-17  3.194405E-01    1 
 5.000000E-01  5.000000E-01  1.265000E+02  3.617994E+01  1.556359E+07  1.557235E+07  9.806979E-01  1.930210E-02  0.000000E+00  1.024000E+03  1.509815E+02  3.447767E-17  3.196959E-01    1 
 5.000000E-01  5.000000E-01  1.275000E+02  3.613926E+01  1.555355E+07  1.556234E+07  9.806339E-01  1.936606E-02  0.000000E+00  1.024000E+03  1.509150E+02  3.448342E-17  3.199516E-01    1 
 5.000000E-01  5.000000E-01  1.285000E+02  3.609858E+01  1.554352E+07  1.555232E+07  9.805699E-01  1.943008E-02  0.000000E+00  1.024000E+03  1.508484E+02  3.448917E-17  3.202074E-01    1 
 5.000000E-01  5.000000E-01  1.295000E+02  3.605791E+01  1.553348E+07  1.554230E+07  9.805058E-01  1.949415E-02  0.000000E+00  1.024000E+03  1.507818E+02  3.449493E-17  3.204635E-01    1 
 5.000000E-01  5.000000E-01  1.305000E+02  3.601724E+01  1.552345E+07  1.553229E+07  9.804417E-01  1.955828E-02  0.000000E+00  1.024000E+03  1.507152E+02  3.450069E-17  3.207197E-01    1 
 5.000000E-01  5.000000E-01  1.315000E+02  3.597657E+01  1.551341E+07  1.552227E+07  9.803775E-01  1.962248E-02  0.000000E+00  1.024000E+03  1.506486E+02  3.450646E-17  3.209762E-01    1 
 5.000000E-01  5.000000E-01  1.325000E+02  3.593591E+01  1.550337E+07  1.551225E+07  9.803133E-01  1.968674E-02  0.000000E+00  1.024000E+03  1.505819E+02  3.451224E-17  3.212329E-01    1 
 5.000000E-01  5.000000E-01  1.335000E+02  3.589524E+01  1.549334E+07  1.550224E+07  9.802489E-01  1.975106E-02  0.000000E+00  1.024000E+03  1.505152E+02  3.451802E-17  3.214898E-01    1 
 5.000000E-01  5.000000E-01  1.345000E+02  3.585459E+01  1.548330E+07  1.549222E+07  9.801845E-01  1.981546E-02  0.000000E+00  1.024000E+03  1.504485E+02  3.452381E-17  3.217469E-01    1 
 5.000000E-01  5.000000E-01  1.355000E+02  3.581393E+01  1.547327E+07  1.548220E+07  9.801201E-01  1.987993E-02  0.000000E+00  1.024000E+03  1.503817E+02  3.452960E-17  3.220042E-01    1 
 5.000000E-01  5.000000E-01  1.365000E+02  3.577328E+01  1.546323E+07  1.547219E+07  9.800555E-01  1.994447E-02  0.000000E+00  1.024000E+03  1.503149E+02  3.453540E-17  3.222617E-01    1 
 5.000000E-01  5.000000E-01  1.375000E+02  3.573263E+01  1.545320E+07  1.546217E+07  9.799909E-01  2.000909E-02  0.000000E+00  1.024000E+03  1.502481E+02  3.454121E-17  3.225194E-01    1 
 5.000000E-01  5.000000E-01  1.385000E+02  3.569199E+01  1.544316E+07  1.545216E+07  9.799262E-01  2.007379E-02  0.000000E+00  1.024000E+03  1.501812E+02  3.454701E-17  3.227773E-01    1 
 5.000000E-01  5.000000E-01  1.395000E+02  3.565135E+01  1.543313E+07  1.544214E+07  9.798614E-01  2.013856E-02  0.000000E+00  1.024000E+03  1.501144E+02  3.455283E-17  3.230354E-01    1 
 5.000000E-01  5.000000E-01  1.405000E+02  3.561071E+01  1.542309E+07  1.543212E+07  9.797966E-01  2.020342E-02  0.000000E+00  1.024000E+03  1.500475E+02  3.455865E-17  3.232937E-01    1 
 5.000000E-01  5.000000E-01  1.415000E+02  3.557007E+01  1.541306E+07  1.542210E+07  9.797316E-01  2.026837E-02  0.000000E+00  1.024000E+03  1.499805E+02  3.456448E-17  3.235523E-01    1 
 5.000000E-01  5.000000E-01  1.425000E+02  3.552944E+01  1.540302E+07  1.541209E+07  9.796666E-01  2.033340E-02  0.000000E+00  1.024000E+03  1.499136E+02  3.457031E-17  3.238110E-01    1 
 5.000000E-01  5.000000E-01  1.435000E+02  3.548881E+01  1.539299E+07  1.540207E+07  9.796015E-01  2.039852E-02  0.000000E+00  1.024000E+03  1.498466E+02  3.457615E-17  3.240699E-01    1 
 5.000000E-01  5.000000E-01  1.445000E+02  3.544819E+01  1.538295E+07  1.539205E+07  9.795363E-01  2.046373E-02  0.000000E+00  1.024000E+03  1.497796E+02  3.458199E-17  3.243291E-01    1 
 5.000000E-01  5.000000E-01  1.455000E+02  3.540757E+01  1.537292E+07  1.538204E+07  9.794710E-01  2.052904E-02  0.000000E+00  1.024000E+03  1.497125E+02  3.458784E-17  3.245885E-01    1 
 5.000000E-01  5.000000E-01  1.465000E+02  3.536695E+01  1.536288E+07  1.537202E+07  9.794056E-01  2.059445E-02  0.000000E+00  1.024000E+03  1.496454E+02  3.459370E-17  3.248480E-01    1 
 5.000000E-01  5.000000E-01  1.475000E+02  3.532633E+01  1.535285E+07  1.536200E+07  9.793400E-01  2.065996E-02  0.000000E+00  1.024000E+03  1.495783E+02  3.459956E-17  3.251078E-01    1 
 5.000000E-01  5.000000E-01  1.485000E+02  3.528572E+01  1.534281E+07  1.535199E+07  9.792744E-01  2.072557E-02  0.000000E+00  1.024000E+03  1.495112E+02  3.460542E-17  3.253678E-01    1 
 5.000000E-01  5.000000E-01  1.495000E+02  3.524511E+01  1.533278E+07  1.534197E+07  9.792087E-01  2.079130E-02  0.000000E+00  1.024000E+03  1.494440E+02  3.461129E-17  3.256280E-01    1 
 5.000000E-01  5.000000E-01  1.505000E+02  3.520451E+01  1.532274E+07  1.533195E+07  9.791429E-01  2.085714E-02  0.000000E+00  1.024000E+03  1.493768E+02  3.461717E-17  3.258884E-01    1 
 5.000000E-01  5.000000E-01  1.515000E+02  3.516391E+01  1.531271E+07  1.532194E+07  9.790769E-01  2.092310E-02  0.000000E+00  1.024000E+03  1.493096E+02  3.462306E-17  3.261490E-01    1 
 5.000000E-01  5.000000E-01  1.525000E+02  3.512331E+01  1.530267E+07  1.531192E+07  9.790108E-01  2.098918E-02  0.000000E+00  1.024000E+03  1.492423E+02  3.462894E-17  3.264098E-01    1 
 5.000000E-01  5.000000E-01  1.535000E+02  3.508271E+01  1.529264E+07  1.530190E+07  9.789446E-01  2.105539E-02  0.000000E+00  1.024000E+03  1.491751E+02  3.463484E-17  3.266708E-01    1 
 5.000000E-01  5.000000E-01  1.545000E+02  3.504212E+01  1.528260E+07  1.529188E+07  9.788783E-01  2.112175E-02  0.000000E+00  1.024000E+03  1.491077E+02  3.464074E-17  3.269320E-01    1 
 5.000000E-01  5.000000E-01  1.555000E+02  3.500153E+01  1.527257E+07  1.528187E+07  9.788118E-01  2.118824E-02  0.000000E+00  1.024000E+03  1.490404E+02  3.464665E-17  3.271935E-01    1 
 5.000000E-01  5.000000E-01  1.565000E+02  3.496095E+01  1.526253E+07  1.527185E+07  9.787451E-01  2.125490E-02  0.000000E+00  1.024000E+03  1.489730E+02  3.465256E-17  3.274551E-01    1 