TITLE = "  1.00800E+05 [y]"
VARIABLES="X [m]","Y [m]","Z [m]","Temperature [C]","Liquid Pressure [Pa]","Gas Pressure [Pa]","Liquid Saturation","Gas Saturation","Hydrate Saturation","Liquid Density [kg/m^3]","Gas Density [kg/m^3]","Permeability X [m^2]","Porosity","Material ID"
ZONE T="1.00800E+05", STRANDID=1, SOLUTIONTIME=1.00800E+05, I=1, J=1, K=1000, DATAPACKING=POINT
 5.000000E-01  5.000000E-01  5.000000E-01  4.142846E+01  1.663418E+07  1.663964E+07  9.896054E-01  1.039456E-02  0.000000E+00  1.024000E+03  1.575270E+02  3.379583E-17  2.890648E-01    1 
 5.000000E-01  5.000000E-01  1.500000E+00  4.138740E+01  1.662414E+07  1.662965E+07  9.895223E-01  1.047765E-02  0.000000E+00  1.024000E+03  1.574637E+02  3.380093E-17  2.892959E-01    1 
 5.000000E-01  5.000000E-01  2.500000E+00  4.134633E+01  1.661411E+07  1.661964E+07  9.894474E-01  1.055258E-02  0.000000E+00  1.024000E+03  1.574002E+02  3.380603E-17  2.895273E-01    1 
 5.000000E-01  5.000000E-01  3.500000E+00  4.130527E+01  1.660407E+07  1.660964E+07  9.893728E-01  1.062724E-02  0.000000E+00  1.024000E+03  1.573368E+02  3.381113E-17  2.897588E-01    1 
 5.000000E-01  5.000000E-01  4.500000E+00  4.126422E+01  1.659404E+07  1.659964E+07  9.892984E-01  1.070158E-02  0.000000E+00  1.024000E+03  1.572733E+02  3.381624E-17  2.899905E-01    1 
 5.000000E-01  5.000000E-01  5.500000E+00  4.122316E+01  1.658400E+07  1.658963E+07  9.892244E-01  1.077556E-02  0.000000E+00  1.024000E+03  1.572098E+02  3.382135E-17  2.902224E-01    1 
 5.000000E-01  5.000000E-01  6.500000E+00  4.118211E+01  1.657397E+07  1.657963E+07  9.891509E-01  1.084913E-02  0.000000E+00  1.024000E+03  1.571463E+02  3.382647E-17  2.904545E-01    1 
 5.000000E-01  5.000000E-01  7.500000E+00  4.114106E+01  1.656393E+07  1.656963E+07  9.890777E-01  1.092225E-02  0.000000E+00  1.024000E+03  1.570827E+02  3.383160E-17  2.906868E-01    1 
 5.000000E-01  5.000000E-01  8.500000E+00  4.110001E+01  1.655390E+07  1.655962E+07  9.890051E-01  1.099488E-02  0.000000E+00  1.024000E+03  1.570191E+02  3.383673E-17  2.909192E-01    1 
 5.000000E-01  5.000000E-01  9.500000E+00  4.105896E+01  1.654386E+07  1.654962E+07  9.889330E-01  1.106697E-02  0.000000E+00  1.024000E+03  1.569555E+02  3.384186E-17  2.911519E-01    1 
 5.000000E-01  5.000000E-01  1.050000E+01  4.101792E+01  1.653383E+07  1.653961E+07  9.888615E-01  1.113851E-02  0.000000E+00  1.024000E+03  1.568919E+02  3.384700E-17  2.913847E-01    1 
 5.000000E-01  5.000000E-01  1.150000E+01  4.097688E+01  1.652379E+07  1.652961E+07  9.887905E-01  1.120947E-02  0.000000E+00  1.024000E+03  1.568282E+02  3.385214E-17  2.916177E-01    1 
 5.000000E-01  5.000000E-01  1.250000E+01  4.093584E+01  1.651375E+07  1.651960E+07  9.887202E-01  1.127983E-02  0.000000E+00  1.024000E+03  1.567645E+02  3.385729E-17  2.918509E-01    1 
 5.000000E-01  5.000000E-01  1.350000E+01  4.089480E+01  1.650372E+07  1.650960E+07  9.886504E-01  1.134956E-02  0.000000E+00  1.024000E+03  1.567008E+02  3.386244E-17  2.920843E-01    1 
 5.000000E-01  5.000000E-01  1.450000E+01  4.085377E+01  1.649368E+07  1.649959E+07  9.885813E-01  1.141868E-02  0.000000E+00  1.024000E+03  1.566370E+02  3.386760E-17  2.923179E-01    1 
 5.000000E-01  5.000000E-01  1.550000E+01  4.081274E+01  1.648365E+07  1.648958E+07  9.885128E-01  1.148716E-02  0.000000E+00  1.024000E+03  1.565732E+02  3.387276E-17  2.925516E-01    1 
 5.000000E-01  5.000000E-01  1.650000E+01  4.077171E+01  1.647361E+07  1.647958E+07  9.884450E-01  1.155502E-02  0.000000E+00  1.024000E+03  1.565094E+02  3.387793E-17  2.927856E-01    1 
 5.000000E-01  5.000000E-01  1.750000E+01  4.073068E+01  1.646358E+07  1.646957E+07  9.883777E-01  1.162226E-02  0.000000E+00  1.024000E+03  1.564455E+02  3.388310E-17  2.930197E-01    1 
 5.000000E-01  5.000000E-01  1.850000E+01  4.068966E+01  1.645354E+07  1.645956E+07  9.883111E-01  1.168889E-02  0.000000E+00  1.024000E+03  1.563816E+02  3.388828E-17  2.932541E-01    1 
 5.000000E-01  5.000000E-01  1.950000E+01  4.064864E+01  1.644350E+07  1.644955E+07  9.882451E-01  1.175493E-02  0.000000E+00  1.024000E+03  1.563177E+02  3.389346E-17  2.934886E-01    1 
 5.000000E-01  5.000000E-01  2.050000E+01  4.060762E+01  1.643347E+07  1.643955E+07  9.881796E-01  1.182039E-02  0.000000E+00  1.024000E+03  1.562538E+02  3.389865E-17  2.937233E-01    1 
 5.000000E-01  5.000000E-01  2.150000E+01  4.056660E+01  1.642343E+07  1.642954E+07  9.881147E-01  1.188530E-02  0.000000E+00  1.024000E+03  1.561898E+02  3.390384E-17  2.939581E-01    1 
 5.000000E-01  5.000000E-01  2.250000E+01  4.052559E+01  1.641340E+07  1.641953E+07  9.880503E-01  1.194969E-02  0.000000E+00  1.024000E+03  1.561258E+02  3.390904E-17  2.941932E-01    1 
 5.000000E-01  5.000000E-01  2.350000E+01  4.048458E+01  1.640336E+07  1.640952E+07  9.879864E-01  1.201358E-02  0.000000E+00  1.024000E+03  1.560618E+02  3.391424E-17  2.944285E-01    1 
 5.000000E-01  5.000000E-01  2.450000E+01  4.044357E+01  1.639332E+07  1.639951E+07  9.879230E-01  1.207701E-02  0.000000E+00  1.024000E+03  1.559977E+02  3.391945E-17  2.946639E-01    1 
 5.000000E-01  5.000000E-01  2.550000E+01  4.040256E+01  1.638329E+07  1.638950E+07  9.878600E-01  1.214000E-02  0.000000E+00  1.024000E+03  1.559336E+02  3.392466E-17  2.948996E-01    1 
 5.000000E-01  5.000000E-01  2.650000E+01  4.036156E+01  1.637325E+07  1.637949E+07  9.877974E-01  1.220258E-02  0.000000E+00  1.024000E+03  1.558695E+02  3.392988E-17  2.951354E-01    1 
 5.000000E-01  5.000000E-01  2.750000E+01  4.032055E+01  1.636321E+07  1.636948E+07  9.877352E-01  1.226479E-02  0.000000E+00  1.024000E+03  1.558054E+02  3.393510E-17  2.953714E-01    1 
 5.000000E-01  5.000000E-01  2.850000E+01  4.027956E+01  1.635318E+07  1.635947E+07  9.876733E-01  1.232667E-02  0.000000E+00  1.024000E+03  1.557412E+02  3.394033E-17  2.956076E-01    1 
 5.000000E-01  5.000000E-01  2.950000E+01  4.023856E+01  1.634314E+07  1.634946E+07  9.876117E-01  1.238825E-02  0.000000E+00  1.024000E+03  1.556770E+02  3.394556E-17  2.958440E-01    1 
 5.000000E-01  5.000000E-01  3.050000E+01  4.019756E+01  1.633311E+07  1.633944E+07  9.875504E-01  1.244956E-02  0.000000E+00  1.024000E+03  1.556127E+02  3.395080E-17  2.960806E-01    1 
 5.000000E-01  5.000000E-01  3.150000E+01  4.015657E+01  1.632307E+07  1.632943E+07  9.874894E-01  1.251063E-02  0.000000E+00  1.024000E+03  1.555485E+02  3.395604E-17  2.963173E-01    1 
 5.000000E-01  5.000000E-01  3.250000E+01  4.011558E+01  1.631303E+07  1.631942E+07  9.874285E-01  1.257150E-02  0.000000E+00  1.024000E+03  1.554842E+02  3.396129E-17  2.965543E-01    1 
 5.000000E-01  5.000000E-01  3.350000E+01  4.007460E+01  1.630300E+07  1.630941E+07  9.873678E-01  1.263221E-02  0.000000E+00  1.024000E+03  1.554199E+02  3.396654E-17  2.967915E-01    1 
 5.000000E-01  5.000000E-01  3.450000E+01  4.003361E+01  1.629296E+07  1.629940E+07  9.873072E-01  1.269277E-02  0.000000E+00  1.024000E+03  1.553555E+02  3.397180E-17  2.970288E-01    1 
 5.000000E-01  5.000000E-01  3.550000E+01  3.999263E+01  1.628292E+07  1.628939E+07  9.872468E-01  1.275323E-02  0.000000E+00  1.024000E+03  1.552912E+02  3.397706E-17  2.972663E-01    1 
 5.000000E-01  5.000000E-01  3.650000E+01  3.995165E+01  1.627289E+07  1.627937E+07  9.871864E-01  1.281362E-02  0.000000E+00  1.024000E+03  1.552268E+02  3.398233E-17  2.975040E-01    1 
 5.000000E-01  5.000000E-01  3.750000E+01  3.991068E+01  1.626285E+07  1.626936E+07  9.871260E-01  1.287396E-02  0.000000E+00  1.024000E+03  1.551623E+02  3.398760E-17  2.977419E-01    1 
 5.000000E-01  5.000000E-01  3.850000E+01  3.986970E+01  1.625281E+07  1.625935E+07  9.870657E-01  1.293430E-02  0.000000E+00  1.024000E+03  1.550979E+02  3.399288E-17  2.979800E-01    1 
 5.000000E-01  5.000000E-01  3.950000E+01  3.982873E+01  1.624278E+07  1.624934E+07  9.870054E-01  1.299465E-02  0.000000E+00  1.024000E+03  1.550334E+02  3.399816E-17  2.982183E-01    1 
 5.000000E-01  5.000000E-01  4.050000E+01  3.978776E+01  1.623274E+07  1.623932E+07  9.869450E-01  1.305504E-02  0.000000E+00  1.024000E+03  1.549689E+02  3.400345E-17  2.984568E-01    1 
 5.000000E-01  5.000000E-01  4.150000E+01  3.974680E+01  1.622270E+07  1.622931E+07  9.868845E-01  1.311551E-02  0.000000E+00  1.024000E+03  1.549044E+02  3.400874E-17  2.986955E-01    1 
 5.000000E-01  5.000000E-01  4.250000E+01  3.970584E+01  1.621267E+07  1.621930E+07  9.868239E-01  1.317608E-02  0.000000E+00  1.024000E+03  1.548398E+02  3.401404E-17  2.989343E-01    1 
 5.000000E-01  5.000000E-01  4.350000E+01  3.966487E+01  1.620263E+07  1.620929E+07  9.867632E-01  1.323678E-02  0.000000E+00  1.024000E+03  1.547752E+02  3.401934E-17  2.991734E-01    1 
 5.000000E-01  5.000000E-01  4.450000E+01  3.962392E+01  1.619259E+07  1.619927E+07  9.867024E-01  1.329764E-02  0.000000E+00  1.024000E+03  1.547106E+02  3.402465E-17  2.994126E-01    1 
 5.000000E-01  5.000000E-01  4.550000E+01  3.958296E+01  1.618256E+07  1.618926E+07  9.866413E-01  1.335869E-02  0.000000E+00  1.024000E+03  1.546459E+02  3.402996E-17  2.996521E-01    1 
 5.000000E-01  5.000000E-01  4.650000E+01  3.954201E+01  1.617252E+07  1.617925E+07  9.865801E-01  1.341994E-02  0.000000E+00  1.024000E+03  1.545812E+02  3.403528E-17  2.998917E-01    1 
 5.000000E-01  5.000000E-01  4.750000E+01  3.950106E+01  1.616248E+07  1.616923E+07  9.865186E-01  1.348143E-02  0.000000E+00  1.024000E+03  1.545165E+02  3.404060E-17  3.001315E-01    1 
 5.000000E-01  5.000000E-01  4.850000E+01  3.946011E+01  1.615244E+07  1.615922E+07  9.864568E-01  1.354318E-02  0.000000E+00  1.024000E+03  1.544518E+02  3.404593E-17  3.003715E-01    1 
 5.000000E-01  5.000000E-01  4.950000E+01  3.941916E+01  1.614241E+07  1.614921E+07  9.863948E-01  1.360522E-02  0.000000E+00  1.024000E+03  1.543871E+02  3.405126E-17  3.006117E-01    1 
 5.000000E-01  5.000000E-01  5.050000E+01  3.937822E+01  1.613237E+07  1.613920E+07  9.863324E-01  1.366756E-02  0.000000E+00  1.024000E+03  1.543223E+02  3.405660E-17  3.008521E-01    1 
 5.000000E-01  5.000000E-01  5.150000E+01  3.933728E+01  1.612233E+07  1.612918E+07  9.862698E-01  1.373024E-02  0.000000E+00  1.024000E+03  1.542575E+02  3.406195E-17  3.010927E-01    1 
 5.000000E-01  5.000000E-01  5.250000E+01  3.929634E+01  1.611230E+07  1.611917E+07  9.862067E-01  1.379326E-02  0.000000E+00  1.024000E+03  1.541926E+02  3.406729E-17  3.013335E-01    1 
 5.000000E-01  5.000000E-01  5.350000E+01  3.925541E+01  1.610226E+07  1.610916E+07  9.861433E-01  1.385666E-02  0.000000E+00  1.024000E+03  1.541278E+02  3.407265E-17  3.015744E-01    1 
 5.000000E-01  5.000000E-01  5.450000E+01  3.921447E+01  1.609222E+07  1.609914E+07  9.860795E-01  1.392045E-02  0.000000E+00  1.024000E+03  1.540629E+02  3.407801E-17  3.018156E-01    1 
 5.000000E-01  5.000000E-01  5.550000E+01  3.917354E+01  1.608218E+07  1.608913E+07  9.860154E-01  1.398465E-02  0.000000E+00  1.024000E+03  1.539980E+02  3.408337E-17  3.020570E-01    1 
 5.000000E-01  5.000000E-01  5.650000E+01  3.913262E+01  1.607215E+07  1.607912E+07  9.859507E-01  1.404926E-02  0.000000E+00  1.024000E+03  1.539330E+02  3.408874E-17  3.022985E-01    1 
 5.000000E-01  5.000000E-01  5.750000E+01  3.909169E+01  1.606211E+07  1.606911E+07  9.858857E-01  1.411432E-02  0.000000E+00  1.024000E+03  1.538681E+02  3.409411E-17  3.025403E-01    1 
 5.000000E-01  5.000000E-01  5.850000E+01  3.905077E+01  1.605207E+07  1.605909E+07  9.858202E-01  1.417982E-02  0.000000E+00  1.024000E+03  1.538031E+02  3.409949E-17  3.027822E-01    1 
 5.000000E-01  5.000000E-01  5.950000E+01  3.900985E+01  1.604203E+07  1.604908E+07  9.857542E-01  1.424577E-02  0.000000E+00  1.024000E+03  1.537380E+02  3.410488E-17  3.030243E-01    1 
 5.000000E-01  5.000000E-01  6.050000E+01  3.896893E+01  1.603200E+07  1.603907E+07  9.856878E-01  1.431219E-02  0.000000E+00  1.024000E+03  1.536730E+02  3.411027E-17  3.032666E-01    1 
 5.000000E-01  5.000000E-01  6.150000E+01  3.892802E+01  1.602196E+07  1.602906E+07  9.856209E-01  1.437907E-02  0.000000E+00  1.024000E+03  1.536079E+02  3.411566E-17  3.035092E-01    1 
 5.000000E-01  5.000000E-01  6.250000E+01  3.888711E+01  1.601192E+07  1.601904E+07  9.855536E-01  1.444642E-02  0.000000E+00  1.024000E+03  1.535428E+02  3.412106E-17  3.037519E-01    1 
 5.000000E-01  5.000000E-01  6.350000E+01  3.884620E+01  1.600188E+07  1.600903E+07  9.854858E-01  1.451423E-02  0.000000E+00  1.024000E+03  1.534777E+02  3.412647E-17  3.039948E-01    1 
 5.000000E-01  5.000000E-01  6.450000E+01  3.880529E+01  1.599185E+07  1.599902E+07  9.854175E-01  1.458251E-02  0.000000E+00  1.024000E+03  1.534125E+02  3.413188E-17  3.042379E-01    1 
 5.000000E-01  5.000000E-01  6.550000E+01  3.876438E+01  1.598181E+07  1.598901E+07  9.853488E-01  1.465123E-02  0.000000E+00  1.024000E+03  1.533473E+02  3.413729E-17  3.044812E-01    1 
 5.000000E-01  5.000000E-01  6.650000E+01  3.872348E+01  1.597177E+07  1.597900E+07  9.852796E-01  1.472039E-02  0.000000E+00  1.024000E+03  1.532821E+02  3.414271E-17  3.047247E-01    1 
 5.000000E-01  5.000000E-01  6.750000E+01  3.868258E+01  1.596173E+07  1.596898E+07  9.852100E-01  1.478998E-02  0.000000E+00  1.024000E+03  1.532169E+02  3.414814E-17  3.049683E-01    1 
 5.000000E-01  5.000000E-01  6.850000E+01  3.864169E+01  1.595169E+07  1.595897E+07  9.851400E-01  1.485998E-02  0.000000E+00  1.024000E+03  1.531516E+02  3.415357E-17  3.052122E-01    1 
 5.000000E-01  5.000000E-01  6.950000E+01  3.860079E+01  1.594166E+07  1.594896E+07  9.850696E-01  1.493036E-02  0.000000E+00  1.024000E+03  1.530863E+02  3.415901E-17  3.054563E-01    1 
 5.000000E-01  5.000000E-01  7.050000E+01  3.855990E+01  1.593162E+07  1.593895E+07  9.849989E-01  1.500111E-02  0.000000E+00  1.024000E+03  1.530210E+02  3.416445E-17  3.057006E-01    1 
 5.000000E-01  5.000000E-01  7.150000E+01  3.851901E+01  1.592158E+07  1.592894E+07  9.849278E-01  1.507219E-02  0.000000E+00  1.024000E+03  1.529557E+02  3.416989E-17  3.059450E-01    1 
 5.000000E-01  5.000000E-01  7.250000E+01  3.847813E+01  1.591154E+07  1.591892E+07  9.848564E-01  1.514358E-02  0.000000E+00  1.024000E+03  1.528903E+02  3.417535E-17  3.061897E-01    1 
 5.000000E-01  5.000000E-01  7.350000E+01  3.843724E+01  1.590150E+07  1.590891E+07  9.847848E-01  1.521525E-02  0.000000E+00  1.024000E+03  1.528249E+02  3.418080E-17  3.064345E-01    1 
 5.000000E-01  5.000000E-01  7.450000E+01  3.839636E+01  1.589147E+07  1.589890E+07  9.847128E-01  1.528715E-02  0.000000E+00  1.024000E+03  1.527595E+02  3.418627E-17  3.066796E-01    1 
 5.000000E-01  5.000000E-01  7.550000E+01  3.835548E+01  1.588143E+07  1.588889E+07  9.846407E-01  1.535927E-02  0.000000E+00  1.024000E+03  1.526940E+02  3.419173E-17  3.069248E-01    1 
 5.000000E-01  5.000000E-01  7.650000E+01  3.831461E+01  1.587139E+07  1.587888E+07  9.845685E-01  1.543155E-02  0.000000E+00  1.024000E+03  1.526285E+02  3.419721E-17  3.071703E-01    1 
 5.000000E-01  5.000000E-01  7.750000E+01  3.827373E+01  1.586135E+07  1.586886E+07  9.844960E-01  1.550396E-02  0.000000E+00  1.024000E+03  1.525630E+02  3.420268E-17  3.074159E-01    1 
 5.000000E-01  5.000000E-01  7.850000E+01  3.823286E+01  1.585131E+07  1.585885E+07  9.844235E-01  1.557646E-02  0.000000E+00  1.024000E+03  1.524975E+02  3.420817E-17  3.076617E-01    1 
 5.000000E-01  5.000000E-01  7.950000E+01  3.819199E+01  1.584127E+07  1.584884E+07  9.843510E-01  1.564902E-02  0.000000E+00  1.024000E+03  1.524319E+02  3.421366E-17  3.079078E-01    1 
 5.000000E-01  5.000000E-01  8.050000E+01  3.815113E+01  1.583124E+07  1.583883E+07  9.842784E-01  1.572160E-02  0.000000E+00  1.024000E+03  1.523663E+02  3.421915E-17  3.081540E-01    1 
 5.000000E-01  5.000000E-01  8.150000E+01  3.811027E+01  1.582120E+07  1.582881E+07  9.842059E-01  1.579415E-02  0.000000E+00  1.024000E+03  1.523007E+02  3.422465E-17  3.084004E-01    1 
 5.000000E-01  5.000000E-01  8.250000E+01  3.806940E+01  1.581116E+07  1.581880E+07  9.841334E-01  1.586664E-02  0.000000E+00  1.024000E+03  1.522350E+02  3.423015E-17  3.086470E-01    1 
 5.000000E-01  5.000000E-01  8.350000E+01  3.802855E+01  1.580112E+07  1.580879E+07  9.840610E-01  1.593904E-02  0.000000E+00  1.024000E+03  1.521693E+02  3.423566E-17  3.088939E-01    1 
 5.000000E-01  5.000000E-01  8.450000E+01  3.798769E+01  1.579108E+07  1.579878E+07  9.839887E-01  1.601131E-02  0.000000E+00  1.024000E+03  1.521036E+02  3.424118E-17  3.091409E-01    1 
 5.000000E-01  5.000000E-01  8.550000E+01  3.794684E+01  1.578104E+07  1.578876E+07  9.839166E-01  1.608342E-02  0.000000E+00  1.024000E+03  1.520379E+02  3.424670E-17  3.093881E-01    1 
 5.000000E-01  5.000000E-01  8.650000E+01  3.790599E+01  1.577100E+07  1.577875E+07  9.838447E-01  1.615535E-02  0.000000E+00  1.024000E+03  1.519721E+02  3.425222E-17  3.096355E-01    1 
 5.000000E-01  5.000000E-01  8.750000E+01  3.786514E+01  1.576096E+07  1.576873E+07  9.837729E-01  1.622706E-02  0.000000E+00  1.024000E+03  1.519063E+02  3.425775E-17  3.098831E-01    1 
 5.000000E-01  5.000000E-01  8.850000E+01  3.782430E+01  1.575093E+07  1.575872E+07  9.837015E-01  1.629853E-02  0.000000E+00  1.024000E+03  1.518404E+02  3.426329E-17  3.101309E-01    1 
 5.000000E-01  5.000000E-01  8.950000E+01  3.778345E+01  1.574089E+07  1.574871E+07  9.836302E-01  1.636975E-02  0.000000E+00  1.024000E+03  1.517746E+02  3.426883E-17  3.103789E-01    1 
 5.000000E-01  5.000000E-01  9.050000E+01  3.774262E+01  1.573085E+07  1.573869E+07  9.835593E-01  1.644069E-02  0.000000E+00  1.024000E+03  1.517087E+02  3.427438E-17  3.106271E-01    1 
 5.000000E-01  5.000000E-01  9.150000E+01  3.770178E+01  1.572081E+07  1.572868E+07  9.834887E-01  1.651134E-02  0.000000E+00  1.024000E+03  1.516428E+02  3.427993E-17  3.108755E-01    1 
 5.000000E-01  5.000000E-01  9.250000E+01  3.766094E+01  1.571077E+07  1.571866E+07  9.834183E-01  1.658169E-02  0.000000E+00  1.024000E+03  1.515768E+02  3.428549E-17  3.111241E-01    1 
 5.000000E-01  5.000000E-01  9.350000E+01  3.762011E+01  1.570073E+07  1.570865E+07  9.833483E-01  1.665173E-02  0.000000E+00  1.024000E+03  1.515108E+02  3.429105E-17  3.113729E-01    1 
 5.000000E-01  5.000000E-01  9.450000E+01  3.757928E+01  1.569069E+07  1.569863E+07  9.832785E-01  1.672146E-02  0.000000E+00  1.024000E+03  1.514448E+02  3.429662E-17  3.116219E-01    1 
 5.000000E-01  5.000000E-01  9.550000E+01  3.753846E+01  1.568065E+07  1.568862E+07  9.832091E-01  1.679087E-02  0.000000E+00  1.024000E+03  1.513788E+02  3.430219E-17  3.118711E-01    1 
 5.000000E-01  5.000000E-01  9.650000E+01  3.749763E+01  1.567061E+07  1.567860E+07  9.831400E-01  1.685996E-02  0.000000E+00  1.024000E+03  1.513127E+02  3.430777E-17  3.121205E-01    1 
 5.000000E-01  5.000000E-01  9.750000E+01  3.745681E+01  1.566057E+07  1.566858E+07  9.830713E-01  1.692874E-02  0.000000E+00  1.024000E+03  1.512466E+02  3.431336E-17  3.123701E-01    1 
 5.000000E-01  5.000000E-01  9.850000E+01  3.741599E+01  1.565053E+07  1.565857E+07  9.830028E-01  1.699720E-02  0.000000E+00  1.024000E+03  1.511805E+02  3.431895E-17  3.126199E-01    1 
 5.000000E-01  5.000000E-01  9.950000E+01  3.737518E+01  1.564050E+07  1.564855E+07  9.829346E-01  1.706536E-02  0.000000E+00  1.024000E+03  1.511143E+02  3.432454E-17  3.128699E-01    1 
 5.000000E-01  5.000000E-01  1.005000E+02  3.733436E+01  1.563046E+07  1.563853E+07  9.828668E-01  1.713322E-02  0.000000E+00  1.024000E+03  1.510481E+02  3.433014E-17  3.131201E-01    1 
 5.000000E-01  5.000000E-01  1.015000E+02  3.729355E+01  1.562042E+07  1.562852E+07  9.827992E-01  1.720079E-02  0.000000E+00  1.024000E+03  1.509819E+02  3.433575E-17  3.133705E-01    1 
 5.000000E-01  5.000000E-01  1.025000E+02  3.725275E+01  1.561038E+07  1.561850E+07  9.827319E-01  1.726808E-02  0.000000E+00  1.024000E+03  1.509157E+02  3.434136E-17  3.136211E-01    1 
 5.000000E-01  5.000000E-01  1.035000E+02  3.721194E+01  1.560034E+07  1.560848E+07  9.826649E-01  1.733511E-02  0.000000E+00  1.024000E+03  1.508494E+02  3.434698E-17  3.138719E-01    1 
 5.000000E-01  5.000000E-01  1.045000E+02  3.717114E+01  1.559030E+07  1.559847E+07  9.825981E-01  1.740188E-02  0.000000E+00  1.024000E+03  1.507831E+02  3.435260E-17  3.141229E-01    1 
 5.000000E-01  5.000000E-01  1.055000E+02  3.713034E+01  1.558026E+07  1.558845E+07  9.825316E-01  1.746842E-02  0.000000E+00  1.024000E+03  1.507168E+02  3.435823E-17  3.143741E-01    1 
 5.000000E-01  5.000000E-01  1.065000E+02  3.708954E+01  1.557022E+07  1.557843E+07  9.824653E-01  1.753472E-02  0.000000E+00  1.024000E+03  1.506504E+02  3.436386E-17  3.146255E-01    1 
 5.000000E-01  5.000000E-01  1.075000E+02  3.704875E+01  1.556018E+07  1.556841E+07  9.823992E-01  1.760082E-02  0.000000E+00  1.024000E+03  1.505840E+02  3.436950E-17  3.148771E-01    1 
 5.000000E-01  5.000000E-01  1.085000E+02  3.700796E+01  1.555014E+07  1.555839E+07  9.823333E-01  1.766671E-02  0.000000E+00  1.024000E+03  1.505176E+02  3.437514E-17  3.151289E-01    1 
 5.000000E-01  5.000000E-01  1.095000E+02  3.696717E+01  1.554010E+07  1.554838E+07  9.822676E-01  1.773242E-02  0.000000E+00  1.024000E+03  1.504511E+02  3.438079E-17  3.153809E-01    1 
 5.000000E-01  5.000000E-01  1.105000E+02  3.692638E+01  1.553006E+07  1.553836E+07  9.822020E-01  1.779795E-02  0.000000E+00  1.024000E+03  1.503846E+02  3.438645E-17  3.156331E-01    1 
 5.000000E-01  5.000000E-01  1.115000E+02  3.688560E+01  1.552002E+07  1.552834E+07  9.821367E-01  1.786333E-02  0.000000E+00  1.024000E+03  1.503181E+02  3.439211E-17  3.158855E-01    1 
 5.000000E-01  5.000000E-01  1.125000E+02  3.684482E+01  1.550998E+07  1.551832E+07  9.820714E-01  1.792856E-02  0.000000E+00  1.024000E+03  1.502516E+02  3.439777E-17  3.161381E-01    1 
 5.000000E-01  5.000000E-01  1.135000E+02  3.680404E+01  1.549994E+07  1.550830E+07  9.820063E-01  1.799366E-02  0.000000E+00  1.024000E+03  1.501850E+02  3.440344E-17  3.163909E-01    1 
 5.000000E-01  5.000000E-01  1.145000E+02  3.676326E+01  1.548990E+07  1.549828E+07  9.819414E-01  1.805864E-02  0.000000E+00  1.024000E+03  1.501184E+02  3.440912E-17  3.166439E-01    1 
 5.000000E-01  5.000000E-01  1.155000E+02  3.672249E+01  1.547986E+07  1.548826E+07  9.818765E-01  1.812352E-02  0.000000E+00  1.024000E+03  1.500518E+02  3.441480E-17  3.168971E-01    1 
 5.000000E-01  5.000000E-01  1.165000E+02  3.668172E+01  1.546982E+07  1.547824E+07  9.818117E-01  1.818830E-02  0.000000E+00  1.024000E+03  1.499851E+02  3.442049E-17  3.171506E-01    1 
 5.000000E-01  5.000000E-01  1.175000E+02  3.664095E+01  1.545978E+07  1.546822E+07  9.817470E-01  1.825300E-02  0.000000E+00  1.024000E+03  1.499184E+02  3.442618E-17  3.174042E-01    1 
 5.000000E-01  5.000000E-01  1.185000E+02  3.660019E+01  1.544974E+07  1.545820E+07  9.816824E-01  1.831763E-02  0.000000E+00  1.024000E+03  1.498517E+02  3.443188E-17  3.176580E-01    1 
 5.000000E-01  5.000000E-01  1.195000E+02  3.655943E+01  1.543970E+07  1.544818E+07  9.816178E-01  1.838220E-02  0.000000E+00  1.024000E+03  1.497850E+02  3.443758E-17  3.179120E-01    1 
 5.000000E-01  5.000000E-01  1.205000E+02  3.651867E+01  1.542966E+07  1.543816E+07  9.815533E-01  1.844672E-02  0.000000E+00  1.024000E+03  1.497182E+02  3.444329E-17  3.181663E-01    1 
 5.000000E-01  5.000000E-01  1.215000E+02  3.647791E+01  1.541962E+07  1.542814E+07  9.814888E-01  1.851120E-02  0.000000E+00  1.024000E+03  1.496514E+02  3.444901E-17  3.184207E-01    1 
 5.000000E-01  5.000000E-01  1.225000E+02  3.643716E+01  1.540958E+07  1.541812E+07  9.814244E-01  1.857565E-02  0.000000E+00  1.024000E+03  1.495845E+02  3.445473E-17  3.186753E-01    1 
 5.000000E-01  5.000000E-01  1.235000E+02  3.639641E+01  1.539954E+07  1.540810E+07  9.813599E-01  1.864008E-02  0.000000E+00  1.024000E+03  1.495177E+02  3.446046E-17  3.189302E-01    1 
 5.000000E-01  5.000000E-01  1.245000E+02  3.635566E+01  1.538949E+07  1.539808E+07  9.812955E-01  1.870449E-02  0.000000E+00  1.024000E+03  1.494508E+02  3.446619E-17  3.191852E-01    1 
 5.000000E-01  5.000000E-01  1.255000E+02  3.631492E+01  1.537945E+07  1.538806E+07  9.812311E-01  1.876890E-02  0.000000E+00  1.024000E+03  1.493838E+02  3.447192E-17  3.194405E-01    1 
 5.000000E-01  5.000000E-01  1.265000E+02  3.627417E+01  1.536941E+07  1.537804E+07  9.811667E-01  1.883332E-02  0.000000E+00  1.024000E+03  1.493169E+02  3.447767E-17  3.196959E-01    1 
 5.000000E-01  5.000000E-01  1.275000E+02  3.623343E+01  1.535937E+07  1.536802E+07  9.811023E-01  1.889774E-02  0.000000E+00  1.024000E+03  1.492499E+02  3.448342E-17  3.199516E-01    1 
 5.000000E-01  5.000000E-01  1.285000E+02  3.619270E+01  1.534933E+07  1.535800E+07  9.810378E-01  1.896218E-02  0.000000E+00  1.024000E+03  1.491829E+02  3.448917E-17  3.202074E-01    1 
 5.000000E-01  5.000000E-01  1.295000E+02  3.615196E+01  1.533929E+07  1.534797E+07  9.809734E-01  1.902664E-02  0.000000E+00  1.024000E+03  1.491159E+02  3.449493E-17  3.204635E-01    1 
 5.000000E-01  5.000000E-01  1.305000E+02  3.611123E+01  1.532925E+07  1.533795E+07  9.809089E-01  1.909113E-02  0.000000E+00  1.024000E+03  1.490488E+02  3.450069E-17  3.207197E-01    1 
 5.000000E-01  5.000000E-01  1.315000E+02  3.607050E+01  1.531921E+07  1.532793E+07  9.808443E-01  1.915565E-02  0.000000E+00  1.024000E+03  1.489817E+02  3.450646E-17  3.209762E-01    1 
 5.000000E-01  5.000000E-01  1.325000E+02  3.602978E+01  1.530917E+07  1.531791E+07  9.807798E-01  1.922021E-02  0.000000E+00  1.024000E+03  1.489146E+02  3.451224E-17  3.212329E-01    1 
 5.000000E-01  5.000000E-01  1.335000E+02  3.598906E+01  1.529913E+07  1.530789E+07  9.807152E-01  1.928482E-02  0.000000E+00  1.024000E+03  1.488474E+02  3.451802E-17  3.214898E-01    1 
 5.000000E-01  5.000000E-01  1.345000E+02  3.594834E+01  1.528909E+07  1.529787E+07  9.806505E-01  1.934947E-02  0.000000E+00  1.024000E+03  1.487802E+02  3.452381E-17  3.217469E-01    1 
 5.000000E-01  5.000000E-01  1.355000E+02  3.590762E+01  1.527905E+07  1.528784E+07  9.805858E-01  1.941418E-02  0.000000E+00  1.024000E+03  1.487130E+02  3.452960E-17  3.220042E-01    1 
 5.000000E-01  5.000000E-01  1.365000E+02  3.586690E+01  1.526900E+07  1.527782E+07  9.805211E-01  1.947893E-02  0.000000E+00  1.024000E+03  1.486457E+02  3.453540E-17  3.222617E-01    1 
 5.000000E-01  5.000000E-01  1.375000E+02  3.582619E+01  1.525896E+07  1.526780E+07  9.804563E-01  1.954375E-02  0.000000E+00  1.024000E+03  1.485785E+02  3.454121E-17  3.225194E-01    1 
 5.000000E-01  5.000000E-01  1.385000E+02  3.578548E+01  1.524892E+07  1.525778E+07  9.803914E-01  1.960863E-02  0.000000E+00  1.024000E+03  1.485112E+02  3.454701E-17  3.227773E-01    1 
 5.000000E-01  5.000000E-01  1.395000E+02  3.574478E+01  1.523888E+07  1.524776E+07  9.803264E-01  1.967357E-02  0.000000E+00  1.024000E+03  1.484438E+02  3.455283E-17  3.230354E-01    1 
 5.000000E-01  5.000000E-01  1.405000E+02  3.570407E+01  1.522884E+07  1.523773E+07  9.802614E-01  1.973858E-02  0.000000E+00  1.024000E+03  1.483765E+02  3.455865E-17  3.232937E-01    1 
 5.000000E-01  5.000000E-01  1.415000E+02  3.566337E+01  1.521880E+07  1.522771E+07  9.801963E-01  1.980365E-02  0.000000E+00  1.024000E+03  1.483091E+02  3.456448E-17  3.235523E-01    1 
 5.000000E-01  5.000000E-01  1.425000E+02  3.562267E+01  1.520876E+07  1.521769E+07  9.801312E-01  1.986880E-02  0.000000E+00  1.024000E+03  1.482416E+02  3.457031E-17  3.238110E-01    1 
 5.000000E-01  5.000000E-01  1.435000E+02  3.558198E+01  1.519871E+07  1.520767E+07  9.800660E-01  1.993402E-02  0.000000E+00  1.024000E+03  1.481742E+02  3.457615E-17  3.240699E-01    1 
 5.000000E-01  5.000000E-01  1.445000E+02  3.554129E+01  1.518867E+07  1.519764E+07  9.800007E-01  1.999931E-02  0.000000E+00  1.024000E+03  1.481067E+02  3.458199E-17  3.243291E-01    1 
 5.000000E-01  5.000000E-01  1.455000E+02  3.550060E+01  1.517863E+07  1.518762E+07  9.799353E-01  2.006469E-02  0.000000E+00  1.024000E+03  1.480392E+02  3.458784E-17  3.245885E-01    1 
 5.000000E-01  5.000000E-01  1.465000E+02  3.545991E+01  1.516859E+07  1.517760E+07  9.798699E-01  2.013014E-02  0.000000E+00  1.024000E+03  1.479716E+02  3.459370E-17  3.248480E-01    1 
 5.000000E-01  5.000000E-01  1.475000E+02  3.541923E+01  1.515855E+07  1.516757E+07  9.798043E-01  2.019567E-02  0.000000E+00  1.024000E+03  1.479041E+02  3.459956E-17  3.251078E-01    1 
 5.000000E-01  5.000000E-01  1.485000E+02  3.537855E+01  1.514851E+07  1.515755E+07  9.797387E-01  2.026128E-02  0.000000E+00  1.024000E+03  1.478365E+02  3.460542E-17  3.253678E-01    1 
 5.000000E-01  5.000000E-01  1.495000E+02  3.533787E+01  1.513846E+07  1.514753E+07  9.796730E-01  2.032699E-02  0.000000E+00  1.024000E+03  1.477688E+02  3.461129E-17  3.256280E-01    1 
 5.000000E-01  5.000000E-01  1.505000E+02  3.529719E+01  1.512842E+07  1.513750E+07  9.796072E-01  2.039277E-02  0.000000E+00  1.024000E+03  1.477012E+02  3.461717E-17  3.258884E-01    1 
 5.000000E-01  5.000000E-01  1.515000E+02  3.525652E+01  1.511838E+07  1.512748E+07  9.795413E-01  2.045865E-02  0.000000E+00  1.024000E+03  1.476335E+02  3.462306E-17  3.261490E-01    1 
 5.000000E-01  5.000000E-01  1.525000E+02  3.521585E+01  1.510834E+07  1.511746E+07  9.794754E-01  2.052462E-02  0.000000E+00  1.024000E+03  1.475658E+02  3.462894E-17  3.264098E-01    1 
 5.000000E-01  5.000000E-01  1.535000E+02  3.517519E+01  1.509830E+07  1.510743E+07  9.794093E-01  2.059069E-02  0.000000E+00  1.024000E+03  1.474980E+02  3.463484E-17  3.266708E-01    1 
 5.000000E-01  5.000000E-01  1.545000E+02  3.513452E+01  1.508825E+07  1.509741E+07  9.793431E-01  2.065685E-02  0.000000E+00  1.024000E+03  1.474302E+02  3.464074E-17  3.269320E-01    1 
 5.000000E-01  5.000000E-01  1.555000E+02  3.509386E+01  1.507821E+07  1.508739E+07  9.792769E-01  2.072312E-02  0.000000E+00  1.024000E+03  1.473624E+02  3.464665E-17  3.271935E-01    1 
 5.000000E-01  5.000000E-01  1.565000E+02  3.505320E+01  1.506817E+07  1.507736E+07  9.792105E-01  2.078949E-02  0.000000E+00  1.024000E+03  1.472946E+02  3.465256E-17  3.274551E-01    1 