TITLE = "  6.82000E+04 [y]"
VARIABLES="X [m]","Y [m]","Z [m]","Temperature [C]","Liquid Pressure [Pa]","Gas Pressure [Pa]","Liquid Saturation","Gas Saturation","Hydrate Saturation","Liquid Density [kg/m^3]","Gas Density [kg/m^3]","Permeability X [m^2]","Porosity","Material ID"
ZONE T="6.82000E+04", STRANDID=1, SOLUTIONTIME=6.82000E+04, I=1, J=1, K=1000, DATAPACKING=POINT
 5.000000E-01  5.000000E-01  5.000000E-01  4.217895E+01  1.713692E+07  1.713781E+07  9.985228E-01  1.477230E-03  0.000000E+00  1.024000E+03  1.612151E+02  3.379583E-17  2.890648E-01    1 
 5.000000E-01  5.000000E-01  1.500000E+00  4.213793E+01  1.712689E+07  1.712780E+07  9.984739E-01  1.526053E-03  0.000000E+00  1.024000E+03  1.611528E+02  3.380093E-17  2.892959E-01    1 
 5.000000E-01  5.000000E-01  2.500000E+00  4.209692E+01  1.711685E+07  1.711779E+07  9.984346E-01  1.565406E-03  0.000000E+00  1.024000E+03  1.610904E+02  3.380603E-17  2.895273E-01    1 
 5.000000E-01  5.000000E-01  3.500000E+00  4.205591E+01  1.710682E+07  1.710778E+07  9.983946E-01  1.605386E-03  0.000000E+00  1.024000E+03  1.610280E+02  3.381113E-17  2.897588E-01    1 
 5.000000E-01  5.000000E-01  4.500000E+00  4.201490E+01  1.709678E+07  1.709776E+07  9.983540E-01  1.646001E-03  0.000000E+00  1.024000E+03  1.609656E+02  3.381624E-17  2.899905E-01    1 
 5.000000E-01  5.000000E-01  5.500000E+00  4.197389E+01  1.708675E+07  1.708775E+07  9.983128E-01  1.687205E-03  0.000000E+00  1.024000E+03  1.609031E+02  3.382135E-17  2.902224E-01    1 
 5.000000E-01  5.000000E-01  6.500000E+00  4.193288E+01  1.707671E+07  1.707774E+07  9.982709E-01  1.729083E-03  0.000000E+00  1.024000E+03  1.608406E+02  3.382647E-17  2.904545E-01    1 
 5.000000E-01  5.000000E-01  7.500000E+00  4.189188E+01  1.706668E+07  1.706773E+07  9.982285E-01  1.771535E-03  0.000000E+00  1.024000E+03  1.607781E+02  3.383160E-17  2.906868E-01    1 
 5.000000E-01  5.000000E-01  8.500000E+00  4.185088E+01  1.705664E+07  1.705772E+07  9.981854E-01  1.814575E-03  0.000000E+00  1.024000E+03  1.607156E+02  3.383673E-17  2.909192E-01    1 
 5.000000E-01  5.000000E-01  9.500000E+00  4.180988E+01  1.704661E+07  1.704771E+07  9.981418E-01  1.858186E-03  0.000000E+00  1.024000E+03  1.606531E+02  3.384186E-17  2.911519E-01    1 
 5.000000E-01  5.000000E-01  1.050000E+01  4.176888E+01  1.703657E+07  1.703770E+07  9.980977E-01  1.902344E-03  0.000000E+00  1.024000E+03  1.605905E+02  3.384700E-17  2.913847E-01    1 
 5.000000E-01  5.000000E-01  1.150000E+01  4.172789E+01  1.702653E+07  1.702769E+07  9.980530E-01  1.947018E-03  0.000000E+00  1.024000E+03  1.605279E+02  3.385214E-17  2.916177E-01    1 
 5.000000E-01  5.000000E-01  1.250000E+01  4.168690E+01  1.701650E+07  1.701768E+07  9.980078E-01  1.992170E-03  0.000000E+00  1.024000E+03  1.604653E+02  3.385729E-17  2.918509E-01    1 
 5.000000E-01  5.000000E-01  1.350000E+01  4.164590E+01  1.700646E+07  1.700767E+07  9.979622E-01  2.037756E-03  0.000000E+00  1.024000E+03  1.604026E+02  3.386244E-17  2.920843E-01    1 
 5.000000E-01  5.000000E-01  1.450000E+01  4.160492E+01  1.699643E+07  1.699766E+07  9.979163E-01  2.083726E-03  0.000000E+00  1.024000E+03  1.603400E+02  3.386760E-17  2.923179E-01    1 
 5.000000E-01  5.000000E-01  1.550000E+01  4.156393E+01  1.698639E+07  1.698765E+07  9.978700E-01  2.130031E-03  0.000000E+00  1.024000E+03  1.602773E+02  3.387276E-17  2.925516E-01    1 
 5.000000E-01  5.000000E-01  1.650000E+01  4.152294E+01  1.697636E+07  1.697764E+07  9.978234E-01  2.176622E-03  0.000000E+00  1.024000E+03  1.602145E+02  3.387793E-17  2.927856E-01    1 
 5.000000E-01  5.000000E-01  1.750000E+01  4.148196E+01  1.696632E+07  1.696764E+07  9.977765E-01  2.223455E-03  0.000000E+00  1.024000E+03  1.601518E+02  3.388310E-17  2.930197E-01    1 
 5.000000E-01  5.000000E-01  1.850000E+01  4.144098E+01  1.695629E+07  1.695763E+07  9.977295E-01  2.270492E-03  0.000000E+00  1.024000E+03  1.600890E+02  3.388828E-17  2.932541E-01    1 
 5.000000E-01  5.000000E-01  1.950000E+01  4.140000E+01  1.694625E+07  1.694762E+07  9.976823E-01  2.317706E-03  0.000000E+00  1.024000E+03  1.600262E+02  3.389346E-17  2.934886E-01    1 
 5.000000E-01  5.000000E-01  2.050000E+01  4.135902E+01  1.693621E+07  1.693761E+07  9.976349E-01  2.365081E-03  0.000000E+00  1.024000E+03  1.599634E+02  3.389865E-17  2.937233E-01    1 
 5.000000E-01  5.000000E-01  2.150000E+01  4.131805E+01  1.692618E+07  1.692760E+07  9.975874E-01  2.412615E-03  0.000000E+00  1.024000E+03  1.599006E+02  3.390384E-17  2.939581E-01    1 
 5.000000E-01  5.000000E-01  2.250000E+01  4.127707E+01  1.691614E+07  1.691759E+07  9.975397E-01  2.460317E-03  0.000000E+00  1.024000E+03  1.598377E+02  3.390904E-17  2.941932E-01    1 
 5.000000E-01  5.000000E-01  2.350000E+01  4.123610E+01  1.690611E+07  1.690758E+07  9.974918E-01  2.508209E-03  0.000000E+00  1.024000E+03  1.597748E+02  3.391424E-17  2.944285E-01    1 
 5.000000E-01  5.000000E-01  2.450000E+01  4.119513E+01  1.689607E+07  1.689758E+07  9.974437E-01  2.556322E-03  0.000000E+00  1.024000E+03  1.597119E+02  3.391945E-17  2.946639E-01    1 
 5.000000E-01  5.000000E-01  2.550000E+01  4.115417E+01  1.688603E+07  1.688757E+07  9.973953E-01  2.604694E-03  0.000000E+00  1.024000E+03  1.596489E+02  3.392466E-17  2.948996E-01    1 
 5.000000E-01  5.000000E-01  2.650000E+01  4.111320E+01  1.687600E+07  1.687756E+07  9.973466E-01  2.653370E-03  0.000000E+00  1.024000E+03  1.595859E+02  3.392988E-17  2.951354E-01    1 
 5.000000E-01  5.000000E-01  2.750000E+01  4.107224E+01  1.686596E+07  1.686755E+07  9.972976E-01  2.702392E-03  0.000000E+00  1.024000E+03  1.595229E+02  3.393510E-17  2.953714E-01    1 
 5.000000E-01  5.000000E-01  2.850000E+01  4.103128E+01  1.685593E+07  1.685754E+07  9.972482E-01  2.751805E-03  0.000000E+00  1.024000E+03  1.594599E+02  3.394033E-17  2.956076E-01    1 
 5.000000E-01  5.000000E-01  2.950000E+01  4.099032E+01  1.684589E+07  1.684753E+07  9.971984E-01  2.801647E-03  0.000000E+00  1.024000E+03  1.593969E+02  3.394556E-17  2.958440E-01    1 
 5.000000E-01  5.000000E-01  3.050000E+01  4.094936E+01  1.683585E+07  1.683753E+07  9.971480E-01  2.851952E-03  0.000000E+00  1.024000E+03  1.593338E+02  3.395080E-17  2.960806E-01    1 
 5.000000E-01  5.000000E-01  3.150000E+01  4.090840E+01  1.682582E+07  1.682752E+07  9.970973E-01  2.902747E-03  0.000000E+00  1.024000E+03  1.592707E+02  3.395604E-17  2.963173E-01    1 
 5.000000E-01  5.000000E-01  3.250000E+01  4.086745E+01  1.681578E+07  1.681751E+07  9.970460E-01  2.954050E-03  0.000000E+00  1.024000E+03  1.592076E+02  3.396129E-17  2.965543E-01    1 
 5.000000E-01  5.000000E-01  3.350000E+01  4.082650E+01  1.680575E+07  1.680750E+07  9.969941E-01  3.005876E-03  0.000000E+00  1.024000E+03  1.591444E+02  3.396654E-17  2.967915E-01    1 
 5.000000E-01  5.000000E-01  3.450000E+01  4.078555E+01  1.679571E+07  1.679750E+07  9.969418E-01  3.058235E-03  0.000000E+00  1.024000E+03  1.590813E+02  3.397180E-17  2.970288E-01    1 
 5.000000E-01  5.000000E-01  3.550000E+01  4.074460E+01  1.678567E+07  1.678749E+07  9.968889E-01  3.111134E-03  0.000000E+00  1.024000E+03  1.590181E+02  3.397706E-17  2.972663E-01    1 
 5.000000E-01  5.000000E-01  3.650000E+01  4.070366E+01  1.677564E+07  1.677748E+07  9.968354E-01  3.164581E-03  0.000000E+00  1.024000E+03  1.589549E+02  3.398233E-17  2.975040E-01    1 
 5.000000E-01  5.000000E-01  3.750000E+01  4.066272E+01  1.676560E+07  1.676748E+07  9.967814E-01  3.218584E-03  0.000000E+00  1.024000E+03  1.588916E+02  3.398760E-17  2.977419E-01    1 
 5.000000E-01  5.000000E-01  3.850000E+01  4.062178E+01  1.675556E+07  1.675747E+07  9.967268E-01  3.273160E-03  0.000000E+00  1.024000E+03  1.588284E+02  3.399288E-17  2.979800E-01    1 
 5.000000E-01  5.000000E-01  3.950000E+01  4.058084E+01  1.674553E+07  1.674747E+07  9.966717E-01  3.328327E-03  0.000000E+00  1.024000E+03  1.587651E+02  3.399816E-17  2.982183E-01    1 
 5.000000E-01  5.000000E-01  4.050000E+01  4.053990E+01  1.673549E+07  1.673746E+07  9.966159E-01  3.384112E-03  0.000000E+00  1.024000E+03  1.587018E+02  3.400345E-17  2.984568E-01    1 
 5.000000E-01  5.000000E-01  4.150000E+01  4.049896E+01  1.672545E+07  1.672746E+07  9.965594E-01  3.440550E-03  0.000000E+00  1.024000E+03  1.586384E+02  3.400874E-17  2.986955E-01    1 
 5.000000E-01  5.000000E-01  4.250000E+01  4.045803E+01  1.671542E+07  1.671745E+07  9.965023E-01  3.497679E-03  0.000000E+00  1.024000E+03  1.585751E+02  3.401404E-17  2.989343E-01    1 
 5.000000E-01  5.000000E-01  4.350000E+01  4.041710E+01  1.670538E+07  1.670745E+07  9.964445E-01  3.555544E-03  0.000000E+00  1.024000E+03  1.585117E+02  3.401934E-17  2.991734E-01    1 
 5.000000E-01  5.000000E-01  4.450000E+01  4.037617E+01  1.669534E+07  1.669744E+07  9.963858E-01  3.614189E-03  0.000000E+00  1.024000E+03  1.584483E+02  3.402465E-17  2.994126E-01    1 
 5.000000E-01  5.000000E-01  4.550000E+01  4.033524E+01  1.668531E+07  1.668744E+07  9.963263E-01  3.673660E-03  0.000000E+00  1.024000E+03  1.583848E+02  3.402996E-17  2.996521E-01    1 
 5.000000E-01  5.000000E-01  4.650000E+01  4.029432E+01  1.667527E+07  1.667743E+07  9.962660E-01  3.733999E-03  0.000000E+00  1.024000E+03  1.583214E+02  3.403528E-17  2.998917E-01    1 
 5.000000E-01  5.000000E-01  4.750000E+01  4.025340E+01  1.666523E+07  1.666743E+07  9.962048E-01  3.795241E-03  0.000000E+00  1.024000E+03  1.582579E+02  3.404060E-17  3.001315E-01    1 
 5.000000E-01  5.000000E-01  4.850000E+01  4.021248E+01  1.665520E+07  1.665743E+07  9.961426E-01  3.857416E-03  0.000000E+00  1.024000E+03  1.581944E+02  3.404593E-17  3.003715E-01    1 
 5.000000E-01  5.000000E-01  4.950000E+01  4.017156E+01  1.664516E+07  1.664743E+07  9.960795E-01  3.920542E-03  0.000000E+00  1.024000E+03  1.581309E+02  3.405126E-17  3.006117E-01    1 
 5.000000E-01  5.000000E-01  5.050000E+01  4.013064E+01  1.663512E+07  1.663742E+07  9.960154E-01  3.984627E-03  0.000000E+00  1.024000E+03  1.580673E+02  3.405660E-17  3.008521E-01    1 
 5.000000E-01  5.000000E-01  5.150000E+01  4.008972E+01  1.662509E+07  1.662742E+07  9.959503E-01  4.049668E-03  0.000000E+00  1.024000E+03  1.580038E+02  3.406195E-17  3.010927E-01    1 
 5.000000E-01  5.000000E-01  5.250000E+01  4.004881E+01  1.661505E+07  1.661742E+07  9.958843E-01  4.115651E-03  0.000000E+00  1.024000E+03  1.579402E+02  3.406729E-17  3.013335E-01    1 
 5.000000E-01  5.000000E-01  5.350000E+01  4.000790E+01  1.660501E+07  1.660742E+07  9.958174E-01  4.182552E-03  0.000000E+00  1.024000E+03  1.578766E+02  3.407265E-17  3.015744E-01    1 
 5.000000E-01  5.000000E-01  5.450000E+01  3.996699E+01  1.659498E+07  1.659742E+07  9.957497E-01  4.250340E-03  0.000000E+00  1.024000E+03  1.578129E+02  3.407801E-17  3.018156E-01    1 
 5.000000E-01  5.000000E-01  5.550000E+01  3.992608E+01  1.658494E+07  1.658742E+07  9.956810E-01  4.318977E-03  0.000000E+00  1.024000E+03  1.577493E+02  3.408337E-17  3.020570E-01    1 
 5.000000E-01  5.000000E-01  5.650000E+01  3.988518E+01  1.657490E+07  1.657742E+07  9.956116E-01  4.388418E-03  0.000000E+00  1.024000E+03  1.576856E+02  3.408874E-17  3.022985E-01    1 
 5.000000E-01  5.000000E-01  5.750000E+01  3.984428E+01  1.656486E+07  1.656742E+07  9.955414E-01  4.458618E-03  0.000000E+00  1.024000E+03  1.576219E+02  3.409411E-17  3.025403E-01    1 
 5.000000E-01  5.000000E-01  5.850000E+01  3.980337E+01  1.655483E+07  1.655742E+07  9.954705E-01  4.529529E-03  0.000000E+00  1.024000E+03  1.575582E+02  3.409949E-17  3.027822E-01    1 
 5.000000E-01  5.000000E-01  5.950000E+01  3.976248E+01  1.654479E+07  1.654742E+07  9.953989E-01  4.601104E-03  0.000000E+00  1.024000E+03  1.574944E+02  3.410488E-17  3.030243E-01    1 
 5.000000E-01  5.000000E-01  6.050000E+01  3.972158E+01  1.653475E+07  1.653742E+07  9.953267E-01  4.673293E-03  0.000000E+00  1.024000E+03  1.574306E+02  3.411027E-17  3.032666E-01    1 
 5.000000E-01  5.000000E-01  6.150000E+01  3.968068E+01  1.652472E+07  1.652743E+07  9.952540E-01  4.746049E-03  0.000000E+00  1.024000E+03  1.573668E+02  3.411566E-17  3.035092E-01    1 
 5.000000E-01  5.000000E-01  6.250000E+01  3.963979E+01  1.651468E+07  1.651743E+07  9.951807E-01  4.819321E-03  0.000000E+00  1.024000E+03  1.573030E+02  3.412106E-17  3.037519E-01    1 
 5.000000E-01  5.000000E-01  6.350000E+01  3.959890E+01  1.650464E+07  1.650743E+07  9.951069E-01  4.893057E-03  0.000000E+00  1.024000E+03  1.572391E+02  3.412647E-17  3.039948E-01    1 
 5.000000E-01  5.000000E-01  6.450000E+01  3.955801E+01  1.649460E+07  1.649743E+07  9.950328E-01  4.967197E-03  0.000000E+00  1.024000E+03  1.571752E+02  3.413188E-17  3.042379E-01    1 
 5.000000E-01  5.000000E-01  6.550000E+01  3.951712E+01  1.648457E+07  1.648743E+07  9.949583E-01  5.041676E-03  0.000000E+00  1.024000E+03  1.571113E+02  3.413729E-17  3.044812E-01    1 
 5.000000E-01  5.000000E-01  6.650000E+01  3.947624E+01  1.647453E+07  1.647743E+07  9.948836E-01  5.116419E-03  0.000000E+00  1.024000E+03  1.570474E+02  3.414271E-17  3.047247E-01    1 
 5.000000E-01  5.000000E-01  6.750000E+01  3.943535E+01  1.646449E+07  1.646744E+07  9.948087E-01  5.191339E-03  0.000000E+00  1.024000E+03  1.569834E+02  3.414814E-17  3.049683E-01    1 
 5.000000E-01  5.000000E-01  6.850000E+01  3.939447E+01  1.645445E+07  1.645744E+07  9.947337E-01  5.266337E-03  0.000000E+00  1.024000E+03  1.569195E+02  3.415357E-17  3.052122E-01    1 
 5.000000E-01  5.000000E-01  6.950000E+01  3.935359E+01  1.644442E+07  1.644744E+07  9.946587E-01  5.341300E-03  0.000000E+00  1.024000E+03  1.568554E+02  3.415901E-17  3.054563E-01    1 
 5.000000E-01  5.000000E-01  7.050000E+01  3.931271E+01  1.643438E+07  1.643744E+07  9.945839E-01  5.416106E-03  0.000000E+00  1.024000E+03  1.567914E+02  3.416445E-17  3.057006E-01    1 
 5.000000E-01  5.000000E-01  7.150000E+01  3.927184E+01  1.642434E+07  1.642744E+07  9.945094E-01  5.490624E-03  0.000000E+00  1.024000E+03  1.567273E+02  3.416989E-17  3.059450E-01    1 
 5.000000E-01  5.000000E-01  7.250000E+01  3.923097E+01  1.641430E+07  1.641744E+07  9.944353E-01  5.564717E-03  0.000000E+00  1.024000E+03  1.566632E+02  3.417535E-17  3.061897E-01    1 
 5.000000E-01  5.000000E-01  7.350000E+01  3.919009E+01  1.640426E+07  1.640744E+07  9.943618E-01  5.638247E-03  0.000000E+00  1.024000E+03  1.565991E+02  3.418080E-17  3.064345E-01    1 
 5.000000E-01  5.000000E-01  7.450000E+01  3.914923E+01  1.639423E+07  1.639744E+07  9.942889E-01  5.711082E-03  0.000000E+00  1.024000E+03  1.565349E+02  3.418627E-17  3.066796E-01    1 
 5.000000E-01  5.000000E-01  7.550000E+01  3.910836E+01  1.638419E+07  1.638744E+07  9.942169E-01  5.783096E-03  0.000000E+00  1.024000E+03  1.564707E+02  3.419173E-17  3.069248E-01    1 
 5.000000E-01  5.000000E-01  7.650000E+01  3.906749E+01  1.637415E+07  1.637744E+07  9.941458E-01  5.854180E-03  0.000000E+00  1.024000E+03  1.564065E+02  3.419721E-17  3.071703E-01    1 
 5.000000E-01  5.000000E-01  7.750000E+01  3.902663E+01  1.636411E+07  1.636744E+07  9.940758E-01  5.924244E-03  0.000000E+00  1.024000E+03  1.563422E+02  3.420268E-17  3.074159E-01    1 
 5.000000E-01  5.000000E-01  7.850000E+01  3.898577E+01  1.635407E+07  1.635744E+07  9.940068E-01  5.993218E-03  0.000000E+00  1.024000E+03  1.562780E+02  3.420817E-17  3.076617E-01    1 
 5.000000E-01  5.000000E-01  7.950000E+01  3.894491E+01  1.634404E+07  1.634743E+07  9.939389E-01  6.061055E-03  0.000000E+00  1.024000E+03  1.562136E+02  3.421366E-17  3.079078E-01    1 
 5.000000E-01  5.000000E-01  8.050000E+01  3.890405E+01  1.633400E+07  1.633743E+07  9.938723E-01  6.127733E-03  0.000000E+00  1.024000E+03  1.561493E+02  3.421915E-17  3.081540E-01    1 
 5.000000E-01  5.000000E-01  8.150000E+01  3.886320E+01  1.632396E+07  1.632742E+07  9.938067E-01  6.193255E-03  0.000000E+00  1.024000E+03  1.560849E+02  3.422465E-17  3.084004E-01    1 
 5.000000E-01  5.000000E-01  8.250000E+01  3.882234E+01  1.631392E+07  1.631742E+07  9.937424E-01  6.257642E-03  0.000000E+00  1.024000E+03  1.560205E+02  3.423015E-17  3.086470E-01    1 
 5.000000E-01  5.000000E-01  8.350000E+01  3.878149E+01  1.630388E+07  1.630741E+07  9.936791E-01  6.320935E-03  0.000000E+00  1.024000E+03  1.559560E+02  3.423566E-17  3.088939E-01    1 
 5.000000E-01  5.000000E-01  8.450000E+01  3.874064E+01  1.629384E+07  1.629740E+07  9.936168E-01  6.383189E-03  0.000000E+00  1.024000E+03  1.558915E+02  3.424118E-17  3.091409E-01    1 
 5.000000E-01  5.000000E-01  8.550000E+01  3.869980E+01  1.628381E+07  1.628740E+07  9.935555E-01  6.444471E-03  0.000000E+00  1.024000E+03  1.558270E+02  3.424670E-17  3.093881E-01    1 
 5.000000E-01  5.000000E-01  8.650000E+01  3.865895E+01  1.627377E+07  1.627739E+07  9.934951E-01  6.504851E-03  0.000000E+00  1.024000E+03  1.557625E+02  3.425222E-17  3.096355E-01    1 
 5.000000E-01  5.000000E-01  8.750000E+01  3.861811E+01  1.626373E+07  1.626738E+07  9.934356E-01  6.564404E-03  0.000000E+00  1.024000E+03  1.556979E+02  3.425775E-17  3.098831E-01    1 
 5.000000E-01  5.000000E-01  8.850000E+01  3.857727E+01  1.625369E+07  1.625737E+07  9.933768E-01  6.623206E-03  0.000000E+00  1.024000E+03  1.556333E+02  3.426329E-17  3.101309E-01    1 
 5.000000E-01  5.000000E-01  8.950000E+01  3.853643E+01  1.624365E+07  1.624736E+07  9.933187E-01  6.681326E-03  0.000000E+00  1.024000E+03  1.555687E+02  3.426883E-17  3.103789E-01    1 
 5.000000E-01  5.000000E-01  9.050000E+01  3.849559E+01  1.623361E+07  1.623735E+07  9.932612E-01  6.738831E-03  0.000000E+00  1.024000E+03  1.555040E+02  3.427438E-17  3.106271E-01    1 
 5.000000E-01  5.000000E-01  9.150000E+01  3.845476E+01  1.622357E+07  1.622734E+07  9.932042E-01  6.795783E-03  0.000000E+00  1.024000E+03  1.554393E+02  3.427993E-17  3.108755E-01    1 
 5.000000E-01  5.000000E-01  9.250000E+01  3.841393E+01  1.621353E+07  1.621733E+07  9.931478E-01  6.852236E-03  0.000000E+00  1.024000E+03  1.553746E+02  3.428549E-17  3.111241E-01    1 
 5.000000E-01  5.000000E-01  9.350000E+01  3.837310E+01  1.620350E+07  1.620732E+07  9.930918E-01  6.908239E-03  0.000000E+00  1.024000E+03  1.553098E+02  3.429105E-17  3.113729E-01    1 
 5.000000E-01  5.000000E-01  9.450000E+01  3.833227E+01  1.619346E+07  1.619731E+07  9.930362E-01  6.963836E-03  0.000000E+00  1.024000E+03  1.552450E+02  3.429662E-17  3.116219E-01    1 
 5.000000E-01  5.000000E-01  9.550000E+01  3.829144E+01  1.618342E+07  1.618730E+07  9.929809E-01  7.019067E-03  0.000000E+00  1.024000E+03  1.551802E+02  3.430219E-17  3.118711E-01    1 
 5.000000E-01  5.000000E-01  9.650000E+01  3.825062E+01  1.617338E+07  1.617729E+07  9.929260E-01  7.073969E-03  0.000000E+00  1.024000E+03  1.551154E+02  3.430777E-17  3.121205E-01    1 
 5.000000E-01  5.000000E-01  9.750000E+01  3.820980E+01  1.616334E+07  1.616727E+07  9.928714E-01  7.128575E-03  0.000000E+00  1.024000E+03  1.550505E+02  3.431336E-17  3.123701E-01    1 
 5.000000E-01  5.000000E-01  9.850000E+01  3.816898E+01  1.615330E+07  1.615726E+07  9.928171E-01  7.182920E-03  0.000000E+00  1.024000E+03  1.549856E+02  3.431895E-17  3.126199E-01    1 
 5.000000E-01  5.000000E-01  9.950000E+01  3.812816E+01  1.614326E+07  1.614725E+07  9.927630E-01  7.237035E-03  0.000000E+00  1.024000E+03  1.549206E+02  3.432454E-17  3.128699E-01    1 
 5.000000E-01  5.000000E-01  1.005000E+02  3.808735E+01  1.613322E+07  1.613724E+07  9.927090E-01  7.290953E-03  0.000000E+00  1.024000E+03  1.548557E+02  3.433014E-17  3.131201E-01    1 
 5.000000E-01  5.000000E-01  1.015000E+02  3.804654E+01  1.612318E+07  1.612722E+07  9.926553E-01  7.344707E-03  0.000000E+00  1.024000E+03  1.547907E+02  3.433575E-17  3.133705E-01    1 
 5.000000E-01  5.000000E-01  1.025000E+02  3.800573E+01  1.611314E+07  1.611721E+07  9.926017E-01  7.398329E-03  0.000000E+00  1.024000E+03  1.547257E+02  3.434136E-17  3.136211E-01    1 
 5.000000E-01  5.000000E-01  1.035000E+02  3.796492E+01  1.610311E+07  1.610720E+07  9.925481E-01  7.451853E-03  0.000000E+00  1.024000E+03  1.546606E+02  3.434698E-17  3.138719E-01    1 
 5.000000E-01  5.000000E-01  1.045000E+02  3.792411E+01  1.609307E+07  1.609719E+07  9.924947E-01  7.505313E-03  0.000000E+00  1.024000E+03  1.545956E+02  3.435260E-17  3.141229E-01    1 
 5.000000E-01  5.000000E-01  1.055000E+02  3.788331E+01  1.608303E+07  1.608717E+07  9.924413E-01  7.558743E-03  0.000000E+00  1.024000E+03  1.545305E+02  3.435823E-17  3.143741E-01    1 
 5.000000E-01  5.000000E-01  1.065000E+02  3.784251E+01  1.607299E+07  1.607716E+07  9.923878E-01  7.612178E-03  0.000000E+00  1.024000E+03  1.544653E+02  3.436386E-17  3.146255E-01    1 
 5.000000E-01  5.000000E-01  1.075000E+02  3.780171E+01  1.606295E+07  1.606715E+07  9.923343E-01  7.665651E-03  0.000000E+00  1.024000E+03  1.544002E+02  3.436950E-17  3.148771E-01    1 
 5.000000E-01  5.000000E-01  1.085000E+02  3.776091E+01  1.605291E+07  1.605713E+07  9.922808E-01  7.719197E-03  0.000000E+00  1.024000E+03  1.543350E+02  3.437514E-17  3.151289E-01    1 
 5.000000E-01  5.000000E-01  1.095000E+02  3.772012E+01  1.604287E+07  1.604712E+07  9.922272E-01  7.772849E-03  0.000000E+00  1.024000E+03  1.542698E+02  3.438079E-17  3.153809E-01    1 
 5.000000E-01  5.000000E-01  1.105000E+02  3.767932E+01  1.603283E+07  1.603711E+07  9.921734E-01  7.826640E-03  0.000000E+00  1.024000E+03  1.542045E+02  3.438645E-17  3.156331E-01    1 
 5.000000E-01  5.000000E-01  1.115000E+02  3.763853E+01  1.602279E+07  1.602709E+07  9.921194E-01  7.880604E-03  0.000000E+00  1.024000E+03  1.541393E+02  3.439211E-17  3.158855E-01    1 
 5.000000E-01  5.000000E-01  1.125000E+02  3.759774E+01  1.601275E+07  1.601708E+07  9.920652E-01  7.934774E-03  0.000000E+00  1.024000E+03  1.540740E+02  3.439777E-17  3.161381E-01    1 
 5.000000E-01  5.000000E-01  1.135000E+02  3.755696E+01  1.600271E+07  1.600707E+07  9.920108E-01  7.989181E-03  0.000000E+00  1.024000E+03  1.540087E+02  3.440344E-17  3.163909E-01    1 
 5.000000E-01  5.000000E-01  1.145000E+02  3.751618E+01  1.599267E+07  1.599705E+07  9.919561E-01  8.043858E-03  0.000000E+00  1.024000E+03  1.539433E+02  3.440912E-17  3.166439E-01    1 
 5.000000E-01  5.000000E-01  1.155000E+02  3.747539E+01  1.598263E+07  1.598704E+07  9.919012E-01  8.098838E-03  0.000000E+00  1.024000E+03  1.538779E+02  3.441480E-17  3.168971E-01    1 
 5.000000E-01  5.000000E-01  1.165000E+02  3.743461E+01  1.597259E+07  1.597703E+07  9.918458E-01  8.154151E-03  0.000000E+00  1.024000E+03  1.538125E+02  3.442049E-17  3.171506E-01    1 
 5.000000E-01  5.000000E-01  1.175000E+02  3.739384E+01  1.596255E+07  1.596701E+07  9.917902E-01  8.209832E-03  0.000000E+00  1.024000E+03  1.537471E+02  3.442618E-17  3.174042E-01    1 
 5.000000E-01  5.000000E-01  1.185000E+02  3.735306E+01  1.595251E+07  1.595700E+07  9.917341E-01  8.265911E-03  0.000000E+00  1.024000E+03  1.536817E+02  3.443188E-17  3.176580E-01    1 
 5.000000E-01  5.000000E-01  1.195000E+02  3.731229E+01  1.594247E+07  1.594699E+07  9.916776E-01  8.322421E-03  0.000000E+00  1.024000E+03  1.536162E+02  3.443758E-17  3.179120E-01    1 
 5.000000E-01  5.000000E-01  1.205000E+02  3.727152E+01  1.593243E+07  1.593697E+07  9.916206E-01  8.379394E-03  0.000000E+00  1.024000E+03  1.535507E+02  3.444329E-17  3.181663E-01    1 
 5.000000E-01  5.000000E-01  1.215000E+02  3.723075E+01  1.592239E+07  1.592696E+07  9.915631E-01  8.436862E-03  0.000000E+00  1.024000E+03  1.534851E+02  3.444901E-17  3.184207E-01    1 
 5.000000E-01  5.000000E-01  1.225000E+02  3.718998E+01  1.591235E+07  1.591695E+07  9.915051E-01  8.494857E-03  0.000000E+00  1.024000E+03  1.534196E+02  3.445473E-17  3.186753E-01    1 
 5.000000E-01  5.000000E-01  1.235000E+02  3.714922E+01  1.590231E+07  1.590693E+07  9.914466E-01  8.553408E-03  0.000000E+00  1.024000E+03  1.533540E+02  3.446046E-17  3.189302E-01    1 
 5.000000E-01  5.000000E-01  1.245000E+02  3.710846E+01  1.589227E+07  1.589692E+07  9.913875E-01  8.612544E-03  0.000000E+00  1.024000E+03  1.532884E+02  3.446619E-17  3.191852E-01    1 
 5.000000E-01  5.000000E-01  1.255000E+02  3.706770E+01  1.588223E+07  1.588691E+07  9.913277E-01  8.672291E-03  0.000000E+00  1.024000E+03  1.532227E+02  3.447192E-17  3.194405E-01    1 
 5.000000E-01  5.000000E-01  1.265000E+02  3.702694E+01  1.587219E+07  1.587690E+07  9.912673E-01  8.732673E-03  0.000000E+00  1.024000E+03  1.531571E+02  3.447767E-17  3.196959E-01    1 
 5.000000E-01  5.000000E-01  1.275000E+02  3.698619E+01  1.586215E+07  1.586689E+07  9.912063E-01  8.793711E-03  0.000000E+00  1.024000E+03  1.530914E+02  3.448342E-17  3.199516E-01    1 
 5.000000E-01  5.000000E-01  1.285000E+02  3.694544E+01  1.585211E+07  1.585688E+07  9.911446E-01  8.855419E-03  0.000000E+00  1.024000E+03  1.530257E+02  3.448917E-17  3.202074E-01    1 
 5.000000E-01  5.000000E-01  1.295000E+02  3.690469E+01  1.584207E+07  1.584686E+07  9.910822E-01  8.917809E-03  0.000000E+00  1.024000E+03  1.529599E+02  3.449493E-17  3.204635E-01    1 
 5.000000E-01  5.000000E-01  1.305000E+02  3.686394E+01  1.583203E+07  1.583685E+07  9.910191E-01  8.980886E-03  0.000000E+00  1.024000E+03  1.528942E+02  3.450069E-17  3.207197E-01    1 
 5.000000E-01  5.000000E-01  1.315000E+02  3.682319E+01  1.582199E+07  1.582684E+07  9.909554E-01  9.044647E-03  0.000000E+00  1.024000E+03  1.528284E+02  3.450646E-17  3.209762E-01    1 
 5.000000E-01  5.000000E-01  1.325000E+02  3.678245E+01  1.581195E+07  1.581683E+07  9.908909E-01  9.109083E-03  0.000000E+00  1.024000E+03  1.527626E+02  3.451224E-17  3.212329E-01    1 
 5.000000E-01  5.000000E-01  1.335000E+02  3.674171E+01  1.580191E+07  1.580682E+07  9.908258E-01  9.174177E-03  0.000000E+00  1.024000E+03  1.526967E+02  3.451802E-17  3.214898E-01    1 
 5.000000E-01  5.000000E-01  1.345000E+02  3.670097E+01  1.579187E+07  1.579681E+07  9.907601E-01  9.239902E-03  0.000000E+00  1.024000E+03  1.526308E+02  3.452381E-17  3.217469E-01    1 
 5.000000E-01  5.000000E-01  1.355000E+02  3.666023E+01  1.578183E+07  1.578680E+07  9.906938E-01  9.306225E-03  0.000000E+00  1.024000E+03  1.525649E+02  3.452960E-17  3.220042E-01    1 
 5.000000E-01  5.000000E-01  1.365000E+02  3.661950E+01  1.577179E+07  1.577679E+07  9.906269E-01  9.373103E-03  0.000000E+00  1.024000E+03  1.524990E+02  3.453540E-17  3.222617E-01    1 
 5.000000E-01  5.000000E-01  1.375000E+02  3.657876E+01  1.576175E+07  1.576678E+07  9.905595E-01  9.440485E-03  0.000000E+00  1.024000E+03  1.524331E+02  3.454121E-17  3.225194E-01    1 
 5.000000E-01  5.000000E-01  1.385000E+02  3.653803E+01  1.575170E+07  1.575677E+07  9.904917E-01  9.508312E-03  0.000000E+00  1.024000E+03  1.523671E+02  3.454701E-17  3.227773E-01    1 
 5.000000E-01  5.000000E-01  1.395000E+02  3.649730E+01  1.574166E+07  1.574676E+07  9.904235E-01  9.576520E-03  0.000000E+00  1.024000E+03  1.523011E+02  3.455283E-17  3.230354E-01    1 
 5.000000E-01  5.000000E-01  1.405000E+02  3.645658E+01  1.573162E+07  1.573675E+07  9.903550E-01  9.645037E-03  0.000000E+00  1.024000E+03  1.522351E+02  3.455865E-17  3.232937E-01    1 
 5.000000E-01  5.000000E-01  1.415000E+02  3.641586E+01  1.572158E+07  1.572674E+07  9.902862E-01  9.713788E-03  0.000000E+00  1.024000E+03  1.521690E+02  3.456448E-17  3.235523E-01    1 
 5.000000E-01  5.000000E-01  1.425000E+02  3.637513E+01  1.571154E+07  1.571673E+07  9.902173E-01  9.782693E-03  0.000000E+00  1.024000E+03  1.521029E+02  3.457031E-17  3.238110E-01    1 
 5.000000E-01  5.000000E-01  1.435000E+02  3.633441E+01  1.570150E+07  1.570672E+07  9.901483E-01  9.851674E-03  0.000000E+00  1.024000E+03  1.520368E+02  3.457615E-17  3.240699E-01    1 
 5.000000E-01  5.000000E-01  1.445000E+02  3.629370E+01  1.569146E+07  1.569671E+07  9.900794E-01  9.920650E-03  0.000000E+00  1.024000E+03  1.519707E+02  3.458199E-17  3.243291E-01    1 
 5.000000E-01  5.000000E-01  1.455000E+02  3.625298E+01  1.568142E+07  1.568670E+07  9.900105E-01  9.989542E-03  0.000000E+00  1.024000E+03  1.519045E+02  3.458784E-17  3.245885E-01    1 
 5.000000E-01  5.000000E-01  1.465000E+02  3.621227E+01  1.567138E+07  1.567669E+07  9.899417E-01  1.005827E-02  0.000000E+00  1.024000E+03  1.518383E+02  3.459370E-17  3.248480E-01    1 
 5.000000E-01  5.000000E-01  1.475000E+02  3.617156E+01  1.566133E+07  1.566668E+07  9.898732E-01  1.012678E-02  0.000000E+00  1.024000E+03  1.517720E+02  3.459956E-17  3.251078E-01    1 
 5.000000E-01  5.000000E-01  1.485000E+02  3.613085E+01  1.565129E+07  1.565667E+07  9.898050E-01  1.019499E-02  0.000000E+00  1.024000E+03  1.517058E+02  3.460542E-17  3.253678E-01    1 
 5.000000E-01  5.000000E-01  1.495000E+02  3.609015E+01  1.564125E+07  1.564666E+07  9.897372E-01  1.026284E-02  0.000000E+00  1.024000E+03  1.516395E+02  3.461129E-17  3.256280E-01    1 
 5.000000E-01  5.000000E-01  1.505000E+02  3.604944E+01  1.563121E+07  1.563665E+07  9.896697E-01  1.033030E-02  0.000000E+00  1.024000E+03  1.515732E+02  3.461717E-17  3.258884E-01    1 
 5.000000E-01  5.000000E-01  1.515000E+02  3.600874E+01  1.562117E+07  1.562663E+07  9.896027E-01  1.039731E-02  0.000000E+00  1.024000E+03  1.515068E+02  3.462306E-17  3.261490E-01    1 
 5.000000E-01  5.000000E-01  1.525000E+02  3.596804E+01  1.561113E+07  1.561662E+07  9.895362E-01  1.046385E-02  0.000000E+00  1.024000E+03  1.514404E+02  3.462894E-17  3.264098E-01    1 
 5.000000E-01  5.000000E-01  1.535000E+02  3.592735E+01  1.560109E+07  1.560661E+07  9.894701E-01  1.052988E-02  0.000000E+00  1.024000E+03  1.513740E+02  3.463484E-17  3.266708E-01    1 
 5.000000E-01  5.000000E-01  1.545000E+02  3.588665E+01  1.559104E+07  1.559660E+07  9.894046E-01  1.059540E-02  0.000000E+00  1.024000E+03  1.513076E+02  3.464074E-17  3.269320E-01    1 
 5.000000E-01  5.000000E-01  1.555000E+02  3.584596E+01  1.558100E+07  1.558658E+07  9.893396E-01  1.066039E-02  0.000000E+00  1.024000E+03  1.512411E+02  3.464665E-17  3.271935E-01    1 
 5.000000E-01  5.000000E-01  1.565000E+02  3.580527E+01  1.557096E+07  1.557657E+07  9.892752E-01  1.072485E-02  0.000000E+00  1.024000E+03  1.511746E+02  3.465256E-17  3.274551E-01    1 